   2   2   1   0
  0.2044406E+02  0.3866969E-09  0.3866969E-09  0.3866969E-09  0.5000000E-16
  1.000000000000000E-004
  CAR 
 bulk	                                   
     32.92359069     -8.06178759  301      5.93062447      1.00000000
     -8.062  0.0000E+00  0.0000E+00
     -7.925  0.0000E+00  0.0000E+00
     -7.789  0.0000E+00  0.0000E+00
     -7.652  0.0000E+00  0.0000E+00
     -7.515  0.0000E+00  0.0000E+00
     -7.379  0.0000E+00  0.0000E+00
     -7.242  0.0000E+00  0.0000E+00
     -7.105  0.0000E+00  0.0000E+00
     -6.969  0.0000E+00  0.0000E+00
     -6.832  0.0000E+00  0.0000E+00
     -6.696  0.3751E-12  0.5125E-13
     -6.559  0.7067E-07  0.9654E-08
     -6.422  0.3795E-03  0.5186E-04
     -6.286  0.6956E-01  0.9554E-02
     -6.149  0.6774E+00  0.1021E+00
     -6.013  0.8153E+00  0.2135E+00
     -5.876  0.5185E+00  0.2843E+00
     -5.739  0.4065E+00  0.3398E+00
     -5.603  0.3491E+00  0.3875E+00
     -5.466  0.3121E+00  0.4302E+00
     -5.329  0.2859E+00  0.4692E+00
     -5.193  0.2662E+00  0.5056E+00
     -5.056  0.2511E+00  0.5399E+00
     -4.920  0.2392E+00  0.5726E+00
     -4.783  0.2300E+00  0.6040E+00
     -4.646  0.2231E+00  0.6345E+00
     -4.510  0.2185E+00  0.6643E+00
     -4.373  0.2166E+00  0.6939E+00
     -4.236  0.2191E+00  0.7238E+00
     -4.100  0.2332E+00  0.7557E+00
     -3.963  0.3652E+00  0.8056E+00
     -3.827  0.6240E+00  0.8909E+00
     -3.690  0.4427E+00  0.9513E+00
     -3.553  0.3280E+00  0.9961E+00
     -3.417  0.2883E+00  0.1036E+01
     -3.280  0.2663E+00  0.1072E+01
     -3.144  0.2525E+00  0.1106E+01
     -3.007  0.2439E+00  0.1140E+01
     -2.870  0.2711E+00  0.1177E+01
     -2.734  0.7777E+00  0.1283E+01
     -2.597  0.1144E+01  0.1439E+01
     -2.460  0.6528E+00  0.1528E+01
     -2.324  0.3887E+00  0.1582E+01
     -2.187  0.6851E+00  0.1675E+01
     -2.051  0.2548E+01  0.2023E+01
     -1.914  0.2396E+01  0.2350E+01
     -1.777  0.5973E+00  0.2432E+01
     -1.641  0.3323E+00  0.2477E+01
     -1.504  0.5060E+00  0.2547E+01
     -1.368  0.8236E+00  0.2659E+01
     -1.231  0.1458E+01  0.2858E+01
     -1.094  0.1484E+01  0.3061E+01
     -0.958  0.5734E+00  0.3139E+01
     -0.821  0.1900E+00  0.3165E+01
     -0.684  0.1639E+00  0.3188E+01
     -0.548  0.1556E+00  0.3209E+01
     -0.411  0.1492E+00  0.3229E+01
     -0.275  0.1442E+00  0.3249E+01
     -0.138  0.1400E+00  0.3268E+01
     -0.001  0.1364E+00  0.3287E+01
      0.135  0.1332E+00  0.3305E+01
      0.272  0.1305E+00  0.3323E+01
      0.409  0.1280E+00  0.3340E+01
      0.545  0.1258E+00  0.3358E+01
      0.682  0.1239E+00  0.3374E+01
      0.818  0.1220E+00  0.3391E+01
      0.955  0.1204E+00  0.3408E+01
      1.092  0.1192E+00  0.3424E+01
      1.228  0.1640E+00  0.3446E+01
      1.365  0.6474E+00  0.3535E+01
      1.501  0.8915E+00  0.3657E+01
      1.638  0.8203E+00  0.3769E+01
      1.775  0.8348E+00  0.3883E+01
      1.911  0.1302E+01  0.4061E+01
      2.048  0.1337E+01  0.4243E+01
      2.185  0.1046E+01  0.4386E+01
      2.321  0.1109E+01  0.4537E+01
      2.458  0.1418E+01  0.4731E+01
      2.594  0.1338E+01  0.4914E+01
      2.731  0.1515E+01  0.5121E+01
      2.868  0.1994E+01  0.5393E+01
      3.004  0.1229E+01  0.5561E+01
      3.141  0.8269E+00  0.5674E+01
      3.278  0.8649E+00  0.5793E+01
      3.414  0.7388E+00  0.5893E+01
      3.551  0.6411E+00  0.5981E+01
      3.687  0.6190E+00  0.6066E+01
      3.824  0.6086E+00  0.6149E+01
      3.961  0.6081E+00  0.6232E+01
      4.097  0.6203E+00  0.6317E+01
      4.234  0.6589E+00  0.6407E+01
      4.370  0.8943E+00  0.6529E+01
      4.507  0.1543E+01  0.6740E+01
      4.644  0.1225E+01  0.6907E+01
      4.780  0.9170E+00  0.7032E+01
      4.917  0.8368E+00  0.7147E+01
      5.054  0.8146E+00  0.7258E+01
      5.190  0.8309E+00  0.7371E+01
      5.327  0.8989E+00  0.7494E+01
      5.463  0.1107E+01  0.7645E+01
      5.600  0.1643E+01  0.7870E+01
      5.737  0.9042E+00  0.7993E+01
      5.873  0.4820E-01  0.8000E+01
      6.010  0.4139E-03  0.8000E+01
      6.146  0.4696E-01  0.8006E+01
      6.283  0.4785E+00  0.8072E+01
      6.420  0.1126E+01  0.8226E+01
      6.556  0.1057E+01  0.8370E+01
      6.693  0.7306E+00  0.8470E+01
      6.830  0.6542E+00  0.8559E+01
      6.966  0.7458E+00  0.8661E+01
      7.103  0.1001E+01  0.8798E+01
      7.239  0.1175E+01  0.8958E+01
      7.376  0.9509E+00  0.9088E+01
      7.513  0.8495E+00  0.9204E+01
      7.649  0.8031E+00  0.9314E+01
      7.786  0.7825E+00  0.9421E+01
      7.923  0.7855E+00  0.9528E+01
      8.059  0.8889E+00  0.9650E+01
      8.196  0.1822E+01  0.9899E+01
      8.332  0.2159E+01  0.1019E+02
      8.469  0.1602E+01  0.1041E+02
      8.606  0.1587E+01  0.1063E+02
      8.742  0.1679E+01  0.1086E+02
      8.879  0.2122E+01  0.1115E+02
      9.015  0.2655E+01  0.1151E+02
      9.152  0.2701E+01  0.1188E+02
      9.289  0.1494E+01  0.1208E+02
      9.425  0.9949E+00  0.1222E+02
      9.562  0.9540E+00  0.1235E+02
      9.699  0.9006E+00  0.1247E+02
      9.835  0.1031E+01  0.1261E+02
      9.972  0.1021E+01  0.1275E+02
     10.108  0.6252E+00  0.1284E+02
     10.245  0.5343E+00  0.1291E+02
     10.382  0.5211E+00  0.1298E+02
     10.518  0.7094E+00  0.1308E+02
     10.655  0.9447E+00  0.1321E+02
     10.791  0.8489E+00  0.1333E+02
     10.928  0.6990E+00  0.1342E+02
     11.065  0.6881E+00  0.1352E+02
     11.201  0.8308E+00  0.1363E+02
     11.338  0.8735E+00  0.1375E+02
     11.475  0.8327E+00  0.1386E+02
     11.611  0.7974E+00  0.1397E+02
     11.748  0.9761E+00  0.1410E+02
     11.884  0.1062E+01  0.1425E+02
     12.021  0.9312E+00  0.1438E+02
     12.158  0.9696E+00  0.1451E+02
     12.294  0.8834E+00  0.1463E+02
     12.431  0.8685E+00  0.1475E+02
     12.568  0.9541E+00  0.1488E+02
     12.704  0.1389E+01  0.1507E+02
     12.841  0.1575E+01  0.1528E+02
     12.977  0.1369E+01  0.1547E+02
     13.114  0.1332E+01  0.1565E+02
     13.251  0.1778E+01  0.1590E+02
     13.387  0.2464E+01  0.1623E+02
     13.524  0.2143E+01  0.1653E+02
     13.660  0.1779E+01  0.1677E+02
     13.797  0.1287E+01  0.1694E+02
     13.934  0.9918E+00  0.1708E+02
     14.070  0.9649E+00  0.1721E+02
     14.207  0.9777E+00  0.1734E+02
     14.344  0.9430E+00  0.1747E+02
     14.480  0.1109E+01  0.1763E+02
     14.617  0.1238E+01  0.1779E+02
     14.753  0.1155E+01  0.1795E+02
     14.890  0.9361E+00  0.1808E+02
     15.027  0.9049E+00  0.1820E+02
     15.163  0.9260E+00  0.1833E+02
     15.300  0.9838E+00  0.1846E+02
     15.436  0.1273E+01  0.1864E+02
     15.573  0.1593E+01  0.1886E+02
     15.710  0.1010E+01  0.1899E+02
     15.846  0.7511E+00  0.1910E+02
     15.983  0.1153E+01  0.1925E+02
     16.120  0.3291E+01  0.1970E+02
     16.256  0.2278E+01  0.2001E+02
     16.393  0.1228E+01  0.2018E+02
     16.529  0.1565E+01  0.2040E+02
     16.666  0.1821E+01  0.2065E+02
     16.803  0.2329E+01  0.2096E+02
     16.939  0.2630E+01  0.2132E+02
     17.076  0.1801E+01  0.2157E+02
     17.213  0.1451E+01  0.2177E+02
     17.349  0.1285E+01  0.2194E+02
     17.486  0.1160E+01  0.2210E+02
     17.622  0.1085E+01  0.2225E+02
     17.759  0.1260E+01  0.2242E+02
     17.896  0.1355E+01  0.2261E+02
     18.032  0.1398E+01  0.2280E+02
     18.169  0.1773E+01  0.2304E+02
     18.305  0.2393E+01  0.2337E+02
     18.442  0.3242E+01  0.2381E+02
     18.579  0.2752E+01  0.2419E+02
     18.715  0.1547E+01  0.2440E+02
     18.852  0.1453E+01  0.2460E+02
     18.989  0.1674E+01  0.2482E+02
     19.125  0.1547E+01  0.2504E+02
     19.262  0.1340E+01  0.2522E+02
     19.398  0.1177E+01  0.2538E+02
     19.535  0.1041E+01  0.2552E+02
     19.672  0.9037E+00  0.2565E+02
     19.808  0.8963E+00  0.2577E+02
     19.945  0.8901E+00  0.2589E+02
     20.082  0.8390E+00  0.2600E+02
     20.218  0.8713E+00  0.2612E+02
     20.355  0.9779E+00  0.2626E+02
     20.491  0.1415E+01  0.2645E+02
     20.628  0.1214E+01  0.2662E+02
     20.765  0.9764E+00  0.2675E+02
     20.901  0.1064E+01  0.2689E+02
     21.038  0.1204E+01  0.2706E+02
     21.174  0.1054E+01  0.2720E+02
     21.311  0.9677E+00  0.2734E+02
     21.448  0.1053E+01  0.2748E+02
     21.584  0.1038E+01  0.2762E+02
     21.721  0.1047E+01  0.2776E+02
     21.858  0.1203E+01  0.2793E+02
     21.994  0.2092E+01  0.2821E+02
     22.131  0.1803E+01  0.2846E+02
     22.267  0.1247E+01  0.2863E+02
     22.404  0.1258E+01  0.2880E+02
     22.541  0.1222E+01  0.2897E+02
     22.677  0.1598E+01  0.2919E+02
     22.814  0.1829E+01  0.2944E+02
     22.950  0.1493E+01  0.2964E+02
     23.087  0.1254E+01  0.2981E+02
     23.224  0.1319E+01  0.2999E+02
     23.360  0.1402E+01  0.3018E+02
     23.497  0.1509E+01  0.3039E+02
     23.634  0.1435E+01  0.3059E+02
     23.770  0.1626E+01  0.3081E+02
     23.907  0.1837E+01  0.3106E+02
     24.043  0.2051E+01  0.3134E+02
     24.180  0.2730E+01  0.3171E+02
     24.317  0.3188E+01  0.3215E+02
     24.453  0.2236E+01  0.3245E+02
     24.590  0.1620E+01  0.3268E+02
     24.727  0.1677E+01  0.3290E+02
     24.863  0.1549E+01  0.3312E+02
     25.000  0.1428E+01  0.3331E+02
     25.136  0.1747E+01  0.3355E+02
     25.273  0.2050E+01  0.3383E+02
     25.410  0.1855E+01  0.3408E+02
     25.546  0.1374E+01  0.3427E+02
     25.683  0.1599E+01  0.3449E+02
     25.819  0.1815E+01  0.3474E+02
     25.956  0.1630E+01  0.3496E+02
     26.093  0.1627E+01  0.3518E+02
     26.229  0.1914E+01  0.3544E+02
     26.366  0.2477E+01  0.3578E+02
     26.503  0.2267E+01  0.3609E+02
     26.639  0.1944E+01  0.3636E+02
     26.776  0.1661E+01  0.3658E+02
     26.912  0.1572E+01  0.3680E+02
     27.049  0.1905E+01  0.3706E+02
     27.186  0.1757E+01  0.3730E+02
     27.322  0.1463E+01  0.3750E+02
     27.459  0.1290E+01  0.3768E+02
     27.595  0.1299E+01  0.3785E+02
     27.732  0.1232E+01  0.3802E+02
     27.869  0.8543E+00  0.3814E+02
     28.005  0.7748E+00  0.3824E+02
     28.142  0.8013E+00  0.3835E+02
     28.279  0.8851E+00  0.3847E+02
     28.415  0.1177E+01  0.3864E+02
     28.552  0.1335E+01  0.3882E+02
     28.688  0.7462E+00  0.3892E+02
     28.825  0.6044E+00  0.3900E+02
     28.962  0.6143E+00  0.3909E+02
     29.098  0.6416E+00  0.3917E+02
     29.235  0.1211E+01  0.3934E+02
     29.372  0.1918E+01  0.3960E+02
     29.508  0.1583E+01  0.3982E+02
     29.645  0.6341E+00  0.3990E+02
     29.781  0.1249E+00  0.3992E+02
     29.918  0.6745E-01  0.3993E+02
     30.055  0.6416E-01  0.3994E+02
     30.191  0.6199E-01  0.3995E+02
     30.328  0.6036E-01  0.3996E+02
     30.464  0.5906E-01  0.3996E+02
     30.601  0.5835E-01  0.3997E+02
     30.738  0.5805E-01  0.3998E+02
     30.874  0.5714E-01  0.3999E+02
     31.011  0.5418E-01  0.3999E+02
     31.148  0.3390E-01  0.4000E+02
     31.284  0.3788E-02  0.4000E+02
     31.421  0.2270E-04  0.4000E+02
     31.557  0.4623E-08  0.4000E+02
     31.694  0.2684E-13  0.4000E+02
     31.831  0.0000E+00  0.4000E+02
     31.967  0.0000E+00  0.4000E+02
     32.104  0.0000E+00  0.4000E+02
     32.241  0.0000E+00  0.4000E+02
     32.377  0.0000E+00  0.4000E+02
     32.514  0.0000E+00  0.4000E+02
     32.650  0.0000E+00  0.4000E+02
     32.787  0.0000E+00  0.4000E+02
     32.924  0.0000E+00  0.4000E+02
     32.92359069     -8.06178759  301      5.93062447      1.00000000
     -8.062  0.0000E+00  0.0000E+00  0.0000E+00  0.0000E+00  0.0000E+00  0.0000E+00  0.0000E+00  0.0000E+00  0.0000E+00
     -7.925  0.0000E+00  0.0000E+00  0.0000E+00  0.0000E+00  0.0000E+00  0.0000E+00  0.0000E+00  0.0000E+00  0.0000E+00
     -7.789  0.0000E+00  0.0000E+00  0.0000E+00  0.0000E+00  0.0000E+00  0.0000E+00  0.0000E+00  0.0000E+00  0.0000E+00
     -7.652  0.0000E+00  0.0000E+00  0.0000E+00  0.0000E+00  0.0000E+00  0.0000E+00  0.0000E+00  0.0000E+00  0.0000E+00
     -7.515  0.0000E+00  0.0000E+00  0.0000E+00  0.0000E+00  0.0000E+00  0.0000E+00  0.0000E+00  0.0000E+00  0.0000E+00
     -7.379  0.0000E+00  0.0000E+00  0.0000E+00  0.0000E+00  0.0000E+00  0.0000E+00  0.0000E+00  0.0000E+00  0.0000E+00
     -7.242  0.0000E+00  0.0000E+00  0.0000E+00  0.0000E+00  0.0000E+00  0.0000E+00  0.0000E+00  0.0000E+00  0.0000E+00
     -7.105  0.0000E+00  0.0000E+00  0.0000E+00  0.0000E+00  0.0000E+00  0.0000E+00  0.0000E+00  0.0000E+00  0.0000E+00
     -6.969  0.0000E+00  0.0000E+00  0.0000E+00  0.0000E+00  0.0000E+00  0.0000E+00  0.0000E+00  0.0000E+00  0.0000E+00
     -6.832  0.0000E+00  0.0000E+00  0.0000E+00  0.0000E+00  0.0000E+00  0.0000E+00  0.0000E+00  0.0000E+00  0.0000E+00
     -6.696  0.7950E-13  0.1048E-16  0.2174E-17  0.4831E-17  0.0000E+00  0.0000E+00  0.0000E+00  0.0000E+00  0.0000E+00
     -6.559  0.1498E-07  0.2663E-11  0.5527E-12  0.1228E-11  0.0000E+00  0.0000E+00  0.0000E+00  0.0000E+00  0.0000E+00
     -6.422  0.8042E-04  0.2125E-07  0.4409E-08  0.9793E-08  0.0000E+00  0.0000E+00  0.0000E+00  0.0000E+00  0.0000E+00
     -6.286  0.1474E-01  0.6763E-05  0.1404E-05  0.3116E-05  0.0000E+00  0.0000E+00  0.0000E+00  0.0000E+00  0.0000E+00
     -6.149  0.1435E+00  0.1452E-03  0.3019E-04  0.6681E-04  0.0000E+00  0.0000E+00  0.0000E+00  0.0000E+00  0.0000E+00
     -6.013  0.1724E+00  0.5096E-03  0.1062E-03  0.2339E-03  0.0000E+00  0.0000E+00  0.0000E+00  0.0000E+00  0.0000E+00
     -5.876  0.1093E+00  0.7923E-03  0.1660E-03  0.3623E-03  0.0000E+00  0.0000E+00  0.0000E+00  0.0000E+00  0.0000E+00
     -5.739  0.8545E-01  0.9886E-03  0.2084E-03  0.4501E-03  0.0000E+00  0.0000E+00  0.0000E+00  0.0000E+00  0.0000E+00
     -5.603  0.7319E-01  0.1149E-02  0.2439E-03  0.5205E-03  0.0000E+00  0.0000E+00  0.0000E+00  0.0000E+00  0.0000E+00
     -5.466  0.6529E-01  0.1287E-02  0.2756E-03  0.5805E-03  0.0000E+00  0.0000E+00  0.0000E+00  0.0000E+00  0.0000E+00
     -5.329  0.5968E-01  0.1411E-02  0.3051E-03  0.6330E-03  0.0000E+00  0.0000E+00  0.0000E+00  0.0000E+00  0.0000E+00
     -5.193  0.5549E-01  0.1524E-02  0.3334E-03  0.6800E-03  0.0000E+00  0.0000E+00  0.0000E+00  0.0000E+00  0.0000E+00
     -5.056  0.5226E-01  0.1628E-02  0.3612E-03  0.7227E-03  0.0000E+00  0.0000E+00  0.0000E+00  0.0000E+00  0.0000E+00
     -4.920  0.4976E-01  0.1725E-02  0.3892E-03  0.7620E-03  0.0000E+00  0.0000E+00  0.0000E+00  0.0000E+00  0.0000E+00
     -4.783  0.4783E-01  0.1817E-02  0.4182E-03  0.7987E-03  0.0000E+00  0.0000E+00  0.0000E+00  0.0000E+00  0.0000E+00
     -4.646  0.4641E-01  0.1905E-02  0.4493E-03  0.8338E-03  0.0000E+00  0.0000E+00  0.0000E+00  0.0000E+00  0.0000E+00
     -4.510  0.4551E-01  0.1992E-02  0.4843E-03  0.8688E-03  0.0000E+00  0.0000E+00  0.0000E+00  0.0000E+00  0.0000E+00
     -4.373  0.4524E-01  0.2079E-02  0.5262E-03  0.9066E-03  0.0000E+00  0.0000E+00  0.0000E+00  0.0000E+00  0.0000E+00
     -4.236  0.4594E-01  0.2174E-02  0.5823E-03  0.9538E-03  0.0000E+00  0.0000E+00  0.0000E+00  0.0000E+00  0.0000E+00
     -4.100  0.4930E-01  0.2310E-02  0.6855E-03  0.1042E-02  0.0000E+00  0.0000E+00  0.0000E+00  0.0000E+00  0.0000E+00
     -3.963  0.7909E-01  0.2965E-02  0.1315E-02  0.1633E-02  0.0000E+00  0.0000E+00  0.0000E+00  0.0000E+00  0.0000E+00
     -3.827  0.1371E+00  0.4289E-02  0.2622E-02  0.2732E-02  0.0000E+00  0.0000E+00  0.0000E+00  0.0000E+00  0.0000E+00
     -3.690  0.9648E-01  0.3758E-02  0.2085E-02  0.1868E-02  0.0000E+00  0.0000E+00  0.0000E+00  0.0000E+00  0.0000E+00
     -3.553  0.7069E-01  0.3456E-02  0.1788E-02  0.1323E-02  0.0000E+00  0.0000E+00  0.0000E+00  0.0000E+00  0.0000E+00
     -3.417  0.6171E-01  0.3444E-02  0.1798E-02  0.1115E-02  0.0000E+00  0.0000E+00  0.0000E+00  0.0000E+00  0.0000E+00
     -3.280  0.5670E-01  0.3489E-02  0.1885E-02  0.9853E-03  0.0000E+00  0.0000E+00  0.0000E+00  0.0000E+00  0.0000E+00
     -3.144  0.5353E-01  0.3554E-02  0.2021E-02  0.8886E-03  0.0000E+00  0.0000E+00  0.0000E+00  0.0000E+00  0.0000E+00
     -3.007  0.5153E-01  0.3631E-02  0.2207E-02  0.8096E-03  0.0000E+00  0.0000E+00  0.0000E+00  0.0000E+00  0.0000E+00
     -2.870  0.5703E-01  0.4339E-02  0.2774E-02  0.7935E-03  0.0000E+00  0.0000E+00  0.0000E+00  0.0000E+00  0.0000E+00
     -2.734  0.1626E+00  0.1445E-01  0.8313E-02  0.1615E-02  0.0000E+00  0.0000E+00  0.0000E+00  0.0000E+00  0.0000E+00
     -2.597  0.2380E+00  0.2194E-01  0.1286E-01  0.2314E-02  0.0000E+00  0.0000E+00  0.0000E+00  0.0000E+00  0.0000E+00
     -2.460  0.1338E+00  0.1508E-01  0.6642E-02  0.1053E-02  0.0000E+00  0.0000E+00  0.0000E+00  0.0000E+00  0.0000E+00
     -2.324  0.7771E-01  0.1255E-01  0.2320E-02  0.1371E-03  0.0000E+00  0.0000E+00  0.0000E+00  0.0000E+00  0.0000E+00
     -2.187  0.1346E+00  0.2647E-01  0.2357E-02  0.3506E-04  0.0000E+00  0.0000E+00  0.0000E+00  0.0000E+00  0.0000E+00
     -2.051  0.5013E+00  0.9862E-01  0.1064E-01  0.5524E-04  0.0000E+00  0.0000E+00  0.0000E+00  0.0000E+00  0.0000E+00
     -1.914  0.4789E+00  0.7917E-01  0.2192E-01  0.4686E-04  0.0000E+00  0.0000E+00  0.0000E+00  0.0000E+00  0.0000E+00
     -1.777  0.1190E+00  0.1958E-01  0.6377E-02  0.1808E-04  0.0000E+00  0.0000E+00  0.0000E+00  0.0000E+00  0.0000E+00
     -1.641  0.6477E-01  0.1218E-01  0.3418E-02  0.1159E-03  0.0000E+00  0.0000E+00  0.0000E+00  0.0000E+00  0.0000E+00
     -1.504  0.9647E-01  0.1396E-01  0.1061E-01  0.1044E-02  0.0000E+00  0.0000E+00  0.0000E+00  0.0000E+00  0.0000E+00
     -1.368  0.1528E+00  0.1924E-01  0.2216E-01  0.3154E-02  0.0000E+00  0.0000E+00  0.0000E+00  0.0000E+00  0.0000E+00
     -1.231  0.2362E+00  0.3842E-01  0.4065E-01  0.1642E-01  0.0000E+00  0.0000E+00  0.0000E+00  0.0000E+00  0.0000E+00
     -1.094  0.2082E+00  0.4217E-01  0.4268E-01  0.2704E-01  0.0000E+00  0.0000E+00  0.0000E+00  0.0000E+00  0.0000E+00
     -0.958  0.7961E-01  0.1662E-01  0.1650E-01  0.1092E-01  0.0000E+00  0.0000E+00  0.0000E+00  0.0000E+00  0.0000E+00
     -0.821  0.2807E-01  0.5660E-02  0.5259E-02  0.3218E-02  0.0000E+00  0.0000E+00  0.0000E+00  0.0000E+00  0.0000E+00
     -0.684  0.2455E-01  0.5089E-02  0.4445E-02  0.2733E-02  0.0000E+00  0.0000E+00  0.0000E+00  0.0000E+00  0.0000E+00
     -0.548  0.2334E-01  0.5026E-02  0.4161E-02  0.2623E-02  0.0000E+00  0.0000E+00  0.0000E+00  0.0000E+00  0.0000E+00
     -0.411  0.2236E-01  0.5013E-02  0.3944E-02  0.2562E-02  0.0000E+00  0.0000E+00  0.0000E+00  0.0000E+00  0.0000E+00
     -0.275  0.2153E-01  0.5029E-02  0.3770E-02  0.2529E-02  0.0000E+00  0.0000E+00  0.0000E+00  0.0000E+00  0.0000E+00
     -0.138  0.2079E-01  0.5064E-02  0.3625E-02  0.2514E-02  0.0000E+00  0.0000E+00  0.0000E+00  0.0000E+00  0.0000E+00
     -0.001  0.2014E-01  0.5112E-02  0.3502E-02  0.2511E-02  0.0000E+00  0.0000E+00  0.0000E+00  0.0000E+00  0.0000E+00
      0.135  0.1955E-01  0.5170E-02  0.3397E-02  0.2516E-02  0.0000E+00  0.0000E+00  0.0000E+00  0.0000E+00  0.0000E+00
      0.272  0.1900E-01  0.5234E-02  0.3304E-02  0.2528E-02  0.0000E+00  0.0000E+00  0.0000E+00  0.0000E+00  0.0000E+00
      0.409  0.1850E-01  0.5305E-02  0.3223E-02  0.2544E-02  0.0000E+00  0.0000E+00  0.0000E+00  0.0000E+00  0.0000E+00
      0.545  0.1802E-01  0.5381E-02  0.3150E-02  0.2564E-02  0.0000E+00  0.0000E+00  0.0000E+00  0.0000E+00  0.0000E+00
      0.682  0.1758E-01  0.5461E-02  0.3085E-02  0.2588E-02  0.0000E+00  0.0000E+00  0.0000E+00  0.0000E+00  0.0000E+00
      0.818  0.1716E-01  0.5545E-02  0.3027E-02  0.2614E-02  0.0000E+00  0.0000E+00  0.0000E+00  0.0000E+00  0.0000E+00
      0.955  0.1676E-01  0.5634E-02  0.2974E-02  0.2642E-02  0.0000E+00  0.0000E+00  0.0000E+00  0.0000E+00  0.0000E+00
      1.092  0.1637E-01  0.5739E-02  0.2943E-02  0.2686E-02  0.0000E+00  0.0000E+00  0.0000E+00  0.0000E+00  0.0000E+00
      1.228  0.1611E-01  0.8047E-02  0.5411E-02  0.5005E-02  0.0000E+00  0.0000E+00  0.0000E+00  0.0000E+00  0.0000E+00
      1.365  0.1669E-01  0.3128E-01  0.3098E-01  0.3009E-01  0.0000E+00  0.0000E+00  0.0000E+00  0.0000E+00  0.0000E+00
      1.501  0.1741E-01  0.4141E-01  0.4488E-01  0.4382E-01  0.0000E+00  0.0000E+00  0.0000E+00  0.0000E+00  0.0000E+00
      1.638  0.1914E-01  0.3647E-01  0.4221E-01  0.4128E-01  0.0000E+00  0.0000E+00  0.0000E+00  0.0000E+00  0.0000E+00
      1.775  0.1958E-01  0.3658E-01  0.4321E-01  0.4375E-01  0.0000E+00  0.0000E+00  0.0000E+00  0.0000E+00  0.0000E+00
      1.911  0.1909E-01  0.5295E-01  0.6868E-01  0.7884E-01  0.0000E+00  0.0000E+00  0.0000E+00  0.0000E+00  0.0000E+00
      2.048  0.1916E-01  0.4866E-01  0.7618E-01  0.8376E-01  0.0000E+00  0.0000E+00  0.0000E+00  0.0000E+00  0.0000E+00
      2.185  0.1905E-01  0.3395E-01  0.6478E-01  0.6592E-01  0.0000E+00  0.0000E+00  0.0000E+00  0.0000E+00  0.0000E+00
      2.321  0.1878E-01  0.3349E-01  0.7111E-01  0.7430E-01  0.0000E+00  0.0000E+00  0.0000E+00  0.0000E+00  0.0000E+00
      2.458  0.1857E-01  0.4115E-01  0.9176E-01  0.1025E+00  0.0000E+00  0.0000E+00  0.0000E+00  0.0000E+00  0.0000E+00
      2.594  0.1823E-01  0.3511E-01  0.9228E-01  0.1003E+00  0.0000E+00  0.0000E+00  0.0000E+00  0.0000E+00  0.0000E+00
      2.731  0.1753E-01  0.3051E-01  0.1163E+00  0.1226E+00  0.0000E+00  0.0000E+00  0.0000E+00  0.0000E+00  0.0000E+00
      2.868  0.1641E-01  0.2782E-01  0.1676E+00  0.1740E+00  0.0000E+00  0.0000E+00  0.0000E+00  0.0000E+00  0.0000E+00
      3.004  0.1551E-01  0.2744E-01  0.9469E-01  0.1023E+00  0.0000E+00  0.0000E+00  0.0000E+00  0.0000E+00  0.0000E+00
      3.141  0.1499E-01  0.3152E-01  0.5216E-01  0.6411E-01  0.0000E+00  0.0000E+00  0.0000E+00  0.0000E+00  0.0000E+00
      3.278  0.1441E-01  0.4444E-01  0.4386E-01  0.6893E-01  0.0000E+00  0.0000E+00  0.0000E+00  0.0000E+00  0.0000E+00
      3.414  0.1378E-01  0.3691E-01  0.3977E-01  0.5747E-01  0.0000E+00  0.0000E+00  0.0000E+00  0.0000E+00  0.0000E+00
      3.551  0.1326E-01  0.3011E-01  0.3760E-01  0.4838E-01  0.0000E+00  0.0000E+00  0.0000E+00  0.0000E+00  0.0000E+00
      3.687  0.1275E-01  0.2982E-01  0.3639E-01  0.4666E-01  0.0000E+00  0.0000E+00  0.0000E+00  0.0000E+00  0.0000E+00
      3.824  0.1221E-01  0.3012E-01  0.3582E-01  0.4612E-01  0.0000E+00  0.0000E+00  0.0000E+00  0.0000E+00  0.0000E+00
      3.961  0.1164E-01  0.3088E-01  0.3585E-01  0.4659E-01  0.0000E+00  0.0000E+00  0.0000E+00  0.0000E+00  0.0000E+00
      4.097  0.1102E-01  0.3230E-01  0.3664E-01  0.4837E-01  0.0000E+00  0.0000E+00  0.0000E+00  0.0000E+00  0.0000E+00
      4.234  0.1033E-01  0.3522E-01  0.3897E-01  0.5287E-01  0.0000E+00  0.0000E+00  0.0000E+00  0.0000E+00  0.0000E+00
      4.370  0.9505E-02  0.5104E-01  0.5425E-01  0.7409E-01  0.0000E+00  0.0000E+00  0.0000E+00  0.0000E+00  0.0000E+00
      4.507  0.8496E-02  0.9835E-01  0.1010E+00  0.1214E+00  0.0000E+00  0.0000E+00  0.0000E+00  0.0000E+00  0.0000E+00
      4.644  0.7755E-02  0.8020E-01  0.8237E-01  0.9027E-01  0.0000E+00  0.0000E+00  0.0000E+00  0.0000E+00  0.0000E+00
      4.780  0.7224E-02  0.5927E-01  0.6090E-01  0.6683E-01  0.0000E+00  0.0000E+00  0.0000E+00  0.0000E+00  0.0000E+00
      4.917  0.6669E-02  0.5408E-01  0.5510E-01  0.6120E-01  0.0000E+00  0.0000E+00  0.0000E+00  0.0000E+00  0.0000E+00
      5.054  0.6058E-02  0.5311E-01  0.5341E-01  0.5987E-01  0.0000E+00  0.0000E+00  0.0000E+00  0.0000E+00  0.0000E+00
      5.190  0.5372E-02  0.5500E-01  0.5435E-01  0.6148E-01  0.0000E+00  0.0000E+00  0.0000E+00  0.0000E+00  0.0000E+00
      5.327  0.4570E-02  0.6077E-01  0.5863E-01  0.6712E-01  0.0000E+00  0.0000E+00  0.0000E+00  0.0000E+00  0.0000E+00
      5.463  0.3557E-02  0.7705E-01  0.7169E-01  0.8376E-01  0.0000E+00  0.0000E+00  0.0000E+00  0.0000E+00  0.0000E+00
      5.600  0.2028E-02  0.1180E+00  0.1050E+00  0.1261E+00  0.0000E+00  0.0000E+00  0.0000E+00  0.0000E+00  0.0000E+00
      5.737  0.4064E-03  0.6577E-01  0.5751E-01  0.6963E-01  0.0000E+00  0.0000E+00  0.0000E+00  0.0000E+00  0.0000E+00
      5.873  0.1041E-04  0.3517E-02  0.3068E-02  0.3710E-02  0.0000E+00  0.0000E+00  0.0000E+00  0.0000E+00  0.0000E+00
      6.010  0.1549E-04  0.2187E-04  0.7540E-05  0.9083E-05  0.0000E+00  0.0000E+00  0.0000E+00  0.0000E+00  0.0000E+00
      6.146  0.2452E-02  0.2104E-02  0.8875E-07  0.1210E-06  0.0000E+00  0.0000E+00  0.0000E+00  0.0000E+00  0.0000E+00
      6.283  0.2478E-01  0.2099E-01  0.2402E-04  0.3286E-04  0.0000E+00  0.0000E+00  0.0000E+00  0.0000E+00  0.0000E+00
      6.420  0.5724E-01  0.4542E-01  0.4569E-03  0.6277E-03  0.0000E+00  0.0000E+00  0.0000E+00  0.0000E+00  0.0000E+00
      6.556  0.5250E-01  0.4156E-01  0.1481E-02  0.2054E-02  0.0000E+00  0.0000E+00  0.0000E+00  0.0000E+00  0.0000E+00
      6.693  0.3498E-01  0.2921E-01  0.2246E-02  0.3097E-02  0.0000E+00  0.0000E+00  0.0000E+00  0.0000E+00  0.0000E+00
      6.830  0.3052E-01  0.2455E-01  0.4705E-02  0.3866E-02  0.0000E+00  0.0000E+00  0.0000E+00  0.0000E+00  0.0000E+00
      6.966  0.3725E-01  0.2234E-01  0.1092E-01  0.4877E-02  0.0000E+00  0.0000E+00  0.0000E+00  0.0000E+00  0.0000E+00
      7.103  0.8941E-01  0.2324E-01  0.1353E-01  0.7771E-02  0.0000E+00  0.0000E+00  0.0000E+00  0.0000E+00  0.0000E+00
      7.239  0.1270E+00  0.2490E-01  0.1513E-01  0.1023E-01  0.0000E+00  0.0000E+00  0.0000E+00  0.0000E+00  0.0000E+00
      7.376  0.8816E-01  0.2404E-01  0.1435E-01  0.9705E-02  0.0000E+00  0.0000E+00  0.0000E+00  0.0000E+00  0.0000E+00
      7.513  0.7075E-01  0.2412E-01  0.1437E-01  0.9855E-02  0.0000E+00  0.0000E+00  0.0000E+00  0.0000E+00  0.0000E+00
      7.649  0.6226E-01  0.2489E-01  0.1482E-01  0.1032E-01  0.0000E+00  0.0000E+00  0.0000E+00  0.0000E+00  0.0000E+00
      7.786  0.5701E-01  0.2640E-01  0.1558E-01  0.1099E-01  0.0000E+00  0.0000E+00  0.0000E+00  0.0000E+00  0.0000E+00
      7.923  0.5361E-01  0.2922E-01  0.1673E-01  0.1193E-01  0.0000E+00  0.0000E+00  0.0000E+00  0.0000E+00  0.0000E+00
      8.059  0.5173E-01  0.3875E-01  0.2133E-01  0.1673E-01  0.0000E+00  0.0000E+00  0.0000E+00  0.0000E+00  0.0000E+00
      8.196  0.5092E-01  0.8634E-01  0.6607E-01  0.6797E-01  0.0000E+00  0.0000E+00  0.0000E+00  0.0000E+00  0.0000E+00
      8.332  0.4483E-01  0.8565E-01  0.9686E-01  0.9450E-01  0.0000E+00  0.0000E+00  0.0000E+00  0.0000E+00  0.0000E+00
      8.469  0.5436E-01  0.4748E-01  0.8361E-01  0.5928E-01  0.0000E+00  0.0000E+00  0.0000E+00  0.0000E+00  0.0000E+00
      8.606  0.7552E-01  0.3877E-01  0.8991E-01  0.4919E-01  0.0000E+00  0.0000E+00  0.0000E+00  0.0000E+00  0.0000E+00
      8.742  0.9625E-01  0.4376E-01  0.6786E-01  0.5548E-01  0.0000E+00  0.0000E+00  0.0000E+00  0.0000E+00  0.0000E+00
      8.879  0.1443E+00  0.5796E-01  0.6262E-01  0.6801E-01  0.0000E+00  0.0000E+00  0.0000E+00  0.0000E+00  0.0000E+00
      9.015  0.9546E-01  0.8174E-01  0.8577E-01  0.9402E-01  0.0000E+00  0.0000E+00  0.0000E+00  0.0000E+00  0.0000E+00
      9.152  0.7059E-01  0.8642E-01  0.9050E-01  0.1101E+00  0.0000E+00  0.0000E+00  0.0000E+00  0.0000E+00  0.0000E+00
      9.289  0.6042E-01  0.4230E-01  0.4618E-01  0.6572E-01  0.0000E+00  0.0000E+00  0.0000E+00  0.0000E+00  0.0000E+00
      9.425  0.5443E-01  0.2272E-01  0.2610E-01  0.4678E-01  0.0000E+00  0.0000E+00  0.0000E+00  0.0000E+00  0.0000E+00
      9.562  0.5050E-01  0.2166E-01  0.2411E-01  0.4677E-01  0.0000E+00  0.0000E+00  0.0000E+00  0.0000E+00  0.0000E+00
      9.699  0.4960E-01  0.2269E-01  0.2309E-01  0.4333E-01  0.0000E+00  0.0000E+00  0.0000E+00  0.0000E+00  0.0000E+00
      9.835  0.5563E-01  0.2749E-01  0.2264E-01  0.5080E-01  0.0000E+00  0.0000E+00  0.0000E+00  0.0000E+00  0.0000E+00
      9.972  0.5151E-01  0.2671E-01  0.2131E-01  0.5295E-01  0.0000E+00  0.0000E+00  0.0000E+00  0.0000E+00  0.0000E+00
     10.108  0.2869E-01  0.1697E-01  0.2211E-01  0.2938E-01  0.0000E+00  0.0000E+00  0.0000E+00  0.0000E+00  0.0000E+00
     10.245  0.2441E-01  0.1523E-01  0.2219E-01  0.2356E-01  0.0000E+00  0.0000E+00  0.0000E+00  0.0000E+00  0.0000E+00
     10.382  0.2249E-01  0.1455E-01  0.2104E-01  0.2439E-01  0.0000E+00  0.0000E+00  0.0000E+00  0.0000E+00  0.0000E+00
     10.518  0.3201E-01  0.2293E-01  0.2907E-01  0.2728E-01  0.0000E+00  0.0000E+00  0.0000E+00  0.0000E+00  0.0000E+00
     10.655  0.4240E-01  0.3233E-01  0.3794E-01  0.3296E-01  0.0000E+00  0.0000E+00  0.0000E+00  0.0000E+00  0.0000E+00
     10.791  0.3440E-01  0.2607E-01  0.3131E-01  0.3586E-01  0.0000E+00  0.0000E+00  0.0000E+00  0.0000E+00  0.0000E+00
     10.928  0.3039E-01  0.2293E-01  0.2767E-01  0.2910E-01  0.0000E+00  0.0000E+00  0.0000E+00  0.0000E+00  0.0000E+00
     11.065  0.3082E-01  0.2355E-01  0.2618E-01  0.2949E-01  0.0000E+00  0.0000E+00  0.0000E+00  0.0000E+00  0.0000E+00
     11.201  0.3958E-01  0.3037E-01  0.2538E-01  0.3734E-01  0.0000E+00  0.0000E+00  0.0000E+00  0.0000E+00  0.0000E+00
     11.338  0.3946E-01  0.3249E-01  0.2690E-01  0.3806E-01  0.0000E+00  0.0000E+00  0.0000E+00  0.0000E+00  0.0000E+00
     11.475  0.3284E-01  0.3266E-01  0.3142E-01  0.3235E-01  0.0000E+00  0.0000E+00  0.0000E+00  0.0000E+00  0.0000E+00
     11.611  0.2839E-01  0.2927E-01  0.3018E-01  0.3189E-01  0.0000E+00  0.0000E+00  0.0000E+00  0.0000E+00  0.0000E+00
     11.748  0.2528E-01  0.2688E-01  0.2885E-01  0.3255E-01  0.0000E+00  0.0000E+00  0.0000E+00  0.0000E+00  0.0000E+00
     11.884  0.2322E-01  0.2551E-01  0.2654E-01  0.3272E-01  0.0000E+00  0.0000E+00  0.0000E+00  0.0000E+00  0.0000E+00
     12.021  0.2585E-01  0.2479E-01  0.2383E-01  0.3260E-01  0.0000E+00  0.0000E+00  0.0000E+00  0.0000E+00  0.0000E+00
     12.158  0.3213E-01  0.2587E-01  0.2331E-01  0.3336E-01  0.0000E+00  0.0000E+00  0.0000E+00  0.0000E+00  0.0000E+00
     12.294  0.2726E-01  0.2529E-01  0.2291E-01  0.3066E-01  0.0000E+00  0.0000E+00  0.0000E+00  0.0000E+00  0.0000E+00
     12.431  0.2532E-01  0.2572E-01  0.2509E-01  0.3128E-01  0.0000E+00  0.0000E+00  0.0000E+00  0.0000E+00  0.0000E+00
     12.568  0.2724E-01  0.2698E-01  0.3319E-01  0.3361E-01  0.0000E+00  0.0000E+00  0.0000E+00  0.0000E+00  0.0000E+00
     12.704  0.2571E-01  0.2835E-01  0.3338E-01  0.3549E-01  0.0000E+00  0.0000E+00  0.0000E+00  0.0000E+00  0.0000E+00
     12.841  0.2363E-01  0.2950E-01  0.3151E-01  0.3701E-01  0.0000E+00  0.0000E+00  0.0000E+00  0.0000E+00  0.0000E+00
     12.977  0.2224E-01  0.3027E-01  0.3028E-01  0.3809E-01  0.0000E+00  0.0000E+00  0.0000E+00  0.0000E+00  0.0000E+00
     13.114  0.2141E-01  0.2723E-01  0.3008E-01  0.3527E-01  0.0000E+00  0.0000E+00  0.0000E+00  0.0000E+00  0.0000E+00
     13.251  0.2230E-01  0.2607E-01  0.3247E-01  0.3426E-01  0.0000E+00  0.0000E+00  0.0000E+00  0.0000E+00  0.0000E+00