    2    2    1    1
  0.2044406E+02  0.3866969E-09  0.3866969E-09  0.3866969E-09  0.5000000E-16
  1.000000000000000E-004
  CAR 
 bulk	                                   
    8  600   20
 
  0.0000000E+00  0.0000000E+00  0.0000000E+00  0.1666667E-02
   1       -6.198816
   2        5.615801
   3        5.615817
   4        5.615817
   5        8.172844
   6        8.172855
   7        8.172855
   8        8.749719
   9       13.325164
  10       13.325164
  11       13.493714
  12       16.798424
  13       16.798428
  14       16.798428
  15       20.890240
  16       28.470229
  17       28.470232
  18       28.470233
  19       29.551295
  20       29.551572
 
  0.5050505E-02  0.0000000E+00  0.5050505E-02  0.1666667E-02
   1       -6.198380
   2        5.612585
   3        5.613906
   4        5.613916
   5        8.171753
   6        8.175290
   7        8.175297
   8        8.752889
   9       13.321485
  10       13.325651
  11       13.495686
  12       16.799193
  13       16.799196
  14       16.801018
  15       20.893456
  16       28.462677
  17       28.462679
  18       28.470790
  19       29.545410
  20       29.546858
 
  0.1010101E-01  0.0000000E+00  0.1010101E-01  0.1666667E-02
   1       -6.197067
   2        5.602946
   3        5.608226
   4        5.608236
   5        8.168462
   6        8.182591
   7        8.182598
   8        8.762351
   9       13.310503
  10       13.327112
  11       13.501593
  12       16.801496
  13       16.801499
  14       16.808744
  15       20.903096
  16       28.440244
  17       28.440246
  18       28.472465
  19       29.527872
  20       29.533646
 
  0.1515152E-01  0.0000000E+00  0.1515152E-01  0.1666667E-02
   1       -6.194868
   2        5.587024
   3        5.598840
   4        5.598850
   5        8.163002
   6        8.194688
   7        8.194695
   8        8.777989
   9       13.292380
  10       13.329549
  11       13.511423
  12       16.805346
  13       16.805349
  14       16.821473
  15       20.919149
  16       28.403677
  17       28.403679
  18       28.475265
  19       29.498971
  20       29.512056
 
  0.2020202E-01  0.0000000E+00  0.2020202E-01  0.1666667E-02
   1       -6.191799
   2        5.564991
   3        5.585845
   4        5.585855
   5        8.155389
   6        8.211466
   7        8.211474
   8        8.799547
   9       13.267374
  10       13.332959
  11       13.525141
  12       16.810716
  13       16.810719
  14       16.838985
  15       20.941580
  16       28.353748
  17       28.353751
  18       28.479180
  19       29.459016
  20       29.482523
 
  0.2525253E-01  0.0000000E+00  0.2525253E-01  0.1666667E-02
   1       -6.187850
   2        5.537124
   3        5.569397
   4        5.569407
   5        8.145671
   6        8.232787
   7        8.232794
   8        8.826778
   9       13.235842
  10       13.337341
  11       13.542717
  12       16.817622
  13       16.817625
  14       16.860996
  15       20.970357
  16       28.291787
  17       28.291790
  18       28.484280
  19       29.408663
  20       29.445779
 
  0.3030303E-01  0.0000000E+00  0.3030303E-01  0.1666667E-02
   1       -6.183026
   2        5.503727
   3        5.549662
   4        5.549672
   5        8.133887
   6        8.258469
   7        8.258476
   8        8.859299
   9       13.198203
  10       13.342699
  11       13.564089
  12       16.826060
  13       16.826063
  14       16.887178
  15       21.005428
  16       28.219033
  17       28.219036
  18       28.490448
  19       29.348457
  20       29.402480
 
  0.3535354E-01  0.0000000E+00  0.3535354E-01  0.1666667E-02
   1       -6.177320
   2        5.465137
   3        5.526843
   4        5.526853
   5        8.120099
   6        8.288320
   7        8.288328
   8        8.896730
   9       13.154936
  10       13.349038
  11       13.589206
  12       16.836034
  13       16.836037
  14       16.917166
  15       21.046734
  16       28.136828
  17       28.136831
  18       28.497781
  19       29.279274
  20       29.353390
 
  0.4040404E-01  0.0000000E+00  0.4040404E-01  0.1666667E-02
   1       -6.170741
   2        5.421711
   3        5.501147
   4        5.501157
   5        8.104370
   6        8.322121
   7        8.322128
   8        8.938638
   9       13.106562
  10       13.356344
  11       13.618000
  12       16.847535
  13       16.847538
  14       16.950553
  15       21.094196
  16       28.046357
  17       28.046361
  18       28.506227
  19       29.201588
  20       29.299098
 
  0.4545455E-01  0.0000000E+00  0.4545455E-01  0.1666667E-02
   1       -6.163286
   2        5.373821
   3        5.472799
   4        5.472809
   5        8.086773
   6        8.359649
   7        8.359656
   8        8.984573
   9       13.053633
  10       13.364624
  11       13.650398
  12       16.860565
  13       16.860568
  14       16.986958
  15       21.147731
  16       27.948766
  17       27.948770
  18       28.515823
  19       29.116347
  20       29.240271
 
  0.5050505E-01  0.0000000E+00  0.5050505E-01  0.1666667E-02
   1       -6.154954
   2        5.321831
   3        5.442024
   4        5.442034
   5        8.067386
   6        8.400679
   7        8.400687
   8        9.034071
   9       12.996719
  10       13.373878
  11       13.686317
  12       16.875122
  13       16.875125
  14       17.025999
  15       21.207238
  16       27.845055
  17       27.845060
  18       28.526580
  19       29.024218
  20       29.177421
 
  0.5555556E-01  0.0000000E+00  0.5555556E-01  0.1666667E-02
   1       -6.145746
   2        5.266095
   3        5.409045
   4        5.409055
   5        8.046291
   6        8.444986
   7        8.444993
   8        9.086656
   9       12.936401
  10       13.384106
  11       13.725672
  12       16.891205
  13       16.891208
  14       17.067313
  15       21.272604
  16       27.736105
  17       27.736110
  18       28.538508
  19       28.925901
  20       29.111026
 
  0.6060606E-01  0.0000000E+00  0.6060606E-01  0.1666667E-02
   1       -6.135663
   2        5.206954
   3        5.374080
   4        5.374090
   5        8.023576
   6        8.492349
   7        8.492356
   8        9.141848
   9       12.873265
  10       13.395308
  11       13.768373
  12       16.908811
  13       16.908814
  14       17.110566
  15       21.343704
  16       27.622679
  17       27.622684
  18       28.551619
  19       28.822050
  20       29.041493
 
  0.6565657E-01  0.0000000E+00  0.6565657E-01  0.1666667E-02
   1       -6.124705
   2        5.144727
   3        5.337337
   4        5.337347
   5        7.999331
   6        8.542557
   7        8.542565
   8        9.199161
   9       12.807905
  10       13.407483
  11       13.814324
  12       16.927936
  13       16.927939
  14       17.155454
  15       21.420399
  16       27.505435
  17       27.505440
  18       28.565924
  19       28.713270
  20       28.969173
 
  0.7070707E-01  0.0000000E+00  0.7070707E-01  0.1666667E-02
   1       -6.112873
   2        5.079711
   3        5.299015
   4        5.299025
   5        7.973649
   6        8.595410
   7        8.595417
   8        9.258098
   9       12.740918
  10       13.420632
  11       13.863429
  12       16.948579
  13       16.948582
  14       17.201710
  15       21.502540
  16       27.384940
  17       27.384945
  18       28.581443
  19       28.600114
  20       28.894369
 
  0.7575758E-01  0.0000000E+00  0.7575758E-01  0.1666667E-02
   1       -6.100168
   2        5.012178
   3        5.259300
   4        5.259310
   5        7.946624
   6        8.650718
   7        8.650726
   8        9.318153
   9       12.672914
  10       13.434754
  11       13.915588
  12       16.970736
  13       16.970739
  14       17.249100
  15       21.589966
  16       27.261682
  17       27.261687
  18       28.483088
  19       28.598189
  20       28.817342
 
  0.8080808E-01  0.0000000E+00  0.8080808E-01  0.1666667E-02
   1       -6.086590
   2        4.942377
   3        5.218367
   4        5.218376
   5        7.918349
   6        8.708304
   7        8.708312
   8        9.378799
   9       12.604514
  10       13.449849
  11       13.970703
  12       16.994401
  13       16.994404
  14       17.297426
  15       21.682506
  16       27.136082
  17       27.136087
  18       28.362649
  19       28.616182
  20       28.738320
 
  0.8585859E-01  0.0000000E+00  0.8585859E-01  0.1666667E-02
   1       -6.072141
   2        4.870534
   3        5.176376
   4        5.176385
   5        7.888919
   6        8.768005
   7        8.768013
   8        9.439482
   9       12.536364
  10       13.465918
  11       14.028673
  12       17.019572
  13       17.019575
  14       17.346525
  15       21.779981
  16       27.008503
  17       27.008508
  18       28.239206
  19       28.635443
  20       28.657497
 
  0.9090909E-01  0.0000000E+00  0.9090909E-01  0.1666667E-02
   1       -6.056827
   2        4.796856
   3        5.133476
   4        5.133485
   5        7.858428
   6        8.829669
   7        8.829677
   8        9.499614
   9       12.469141
  10       13.482960
  11       14.089399
  12       17.046241
  13       17.046244
  14       17.396264
  15       21.882203
  16       26.879260
  17       26.879265
  18       28.113128
  19       28.575049
  20       28.655993
 
  0.9595960E-01  0.0000000E+00  0.9595960E-01  0.1666667E-02
   1       -6.040641
   2        4.721527
   3        5.089804
   4        5.089814
   5        7.826969
   6        8.893157
   7        8.893165
   8        9.558562
   9       12.403562
  10       13.500974
  11       14.152781
  12       17.074406
  13       17.074409
  14       17.446542
  15       21.988989
  16       26.748632
  17       26.748638
  18       27.984745
  19       28.491139
  20       28.677925
 
  0.1010101E+00  0.0000000E+00  0.1010101E+00  0.1666667E-02
   1       -6.023588
   2        4.644711
   3        5.045485
   4        5.045494
   5        7.794630
   6        8.958337
   7        8.958345
   8        9.615633
   9       12.340395
  10       13.519961
  11       14.218721
  12       17.104055
  13       17.104058
  14       17.497271
  15       22.100121
  16       26.616853
  17       26.616859
  18       27.854352
  19       28.405878
  20       28.701131
 
  0.1060606E+00  0.0000000E+00  0.1060606E+00  0.1666667E-02
   1       -6.005663
   2        4.566559
   3        5.000633
   4        5.000643
   5        7.761502
   6        9.025094
   7        9.025102
   8        9.670079
   9       12.280466
  10       13.539921
  11       14.287126
  12       17.135187
  13       17.135190
  14       17.548400
  15       22.215410
  16       26.484156
  17       26.484163
  18       27.722213
  19       28.319433
  20       28.725711
 
  0.1111111E+00  0.0000000E+00  0.1111111E+00  0.1666667E-02
   1       -5.986875
   2        4.487205
   3        4.955353
   4        4.955362
   5        7.727667
   6        9.093319
   7        9.093327
   8        9.721078
   9       12.224661
  10       13.560853
  11       14.357895
  12       17.167786
  13       17.167789
  14       17.599892
  15       22.334644
  16       26.350695
  17       26.350701
  18       27.588562
  19       28.231847
  20       28.751693
 
  0.1161616E+00  0.0000000E+00  0.1161616E+00  0.1666667E-02
   1       -5.967224
   2        4.406768
   3        4.909739
   4        4.909749
   5        7.693196
   6        9.162913
   7        9.162921
   8        9.767751
   9       12.173924
  10       13.582758
  11       14.430939
  12       17.201844
  13       17.201847
  14       17.651728
  15       22.457620
  16       26.216646
  17       26.216653
  18       27.453610
  19       28.143216
  20       28.779113
 
  0.1212121E+00  0.0000000E+00  0.1212121E+00  0.1666667E-02
   1       -5.946705
   2        4.325355
   3        4.863880
   4        4.863889
   5        7.658197
   6        9.233786
   7        9.233794
   8        9.809170
   9       12.129245
  10       13.605634
  11       14.506166
  12       17.237353
  13       17.237355
  14       17.703901
  15       22.584129
  16       26.082180
  17       26.082186
  18       27.317547
  19       28.053710
  20       28.808011
 
  0.1262626E+00  0.0000000E+00  0.1262626E+00  0.1666667E-02
   1       -5.925322
   2        4.243063
   3        4.817853
   4        4.817863
   5        7.622733
   6        9.305854
   7        9.305863
   8        9.844387
   9       12.091626
  10       13.629482
  11       14.583489
  12       17.274298
  13       17.274301
  14       17.756418
  15       22.713961
  16       25.947423
  17       25.947430
  18       27.180542
  19       27.963378
  20       28.838430
 
  0.1313131E+00  0.0000000E+00  0.1313131E+00  0.1666667E-02
   1       -5.903077
   2        4.159978
   3        4.771733
   4        4.771742
   5        7.586879
   6        9.379042
   7        9.379050
   8        9.872482
   9       12.062039
  10       13.654301
  11       14.662822
  12       17.312667
  13       17.312670
  14       17.809294
  15       22.846910
  16       25.812502
  17       25.812508
  18       27.042746
  19       27.872298
  20       28.870416
 
  0.1363636E+00  0.0000000E+00  0.1363636E+00  0.1666667E-02
   1       -5.879971
   2        4.076178
   3        4.725583
   4        4.725593
   5        7.550704
   6        9.453278
   7        9.453286
   8        9.892627
   9       12.041360
  10       13.680092
  11       14.744079
  12       17.352444
  13       17.352447
  14       17.862553
  15       22.982766
  16       25.677530
  17       25.677537
  18       26.904296
  19       27.780547
  20       28.904019
 
  0.1414141E+00  0.0000000E+00  0.1414141E+00  0.1666667E-02
   1       -5.856005
   2        3.991728
   3        4.679465
   4        4.679475
   5        7.514278
   6        9.528497
   7        9.528506
   8        9.904154
   9       12.030298
  10       13.706854
  11       14.827178
  12       17.393611
  13       17.393614
  14       17.916224
  15       23.121324
  16       25.542614
  17       25.542621
  18       26.765315
  19       27.688198
  20       28.939294
 
  0.1464646E+00  0.0000000E+00  0.1464646E+00  0.1666667E-02
   1       -5.831185
   2        3.906694
   3        4.633434
   4        4.633443
   5        7.477652
   6        9.604641
   7        9.604649
   8        9.906631
   9       12.029330
  10       13.734587
  11       14.912041
  12       17.436140
  13       17.436143
  14       17.970342
  15       23.262375
  16       25.407772
  17       25.407779
  18       26.625828
  19       27.595290
  20       28.976296
 
  0.1515152E+00  0.0000000E+00  0.1515152E+00  0.1666667E-02
   1       -5.805505
   2        3.821135
   3        4.587540
   4        4.587549
   5        7.440913
   6        9.681659
   7        9.681668
   8        9.899904
   9       12.038648
  10       13.763290
  11       14.998590
  12       17.480026
  13       17.480028
  14       18.024944
  15       23.405713
  16       25.273262
  17       25.273269
  18       26.486105
  19       27.501946
  20       29.015097
 
  0.1565657E+00  0.0000000E+00  0.1565657E+00  0.1666667E-02
   1       -5.778969
   2        3.735100
   3        4.541830
   4        4.541839
   5        7.404109
   6        9.759500
   7        9.759508
   8        9.884111
   9       12.058147
  10       13.792964
  11       15.086747
  12       17.525234
  13       17.525237
  14       18.080072
  15       23.551129
  16       25.139093
  17       25.139100
  18       26.346152
  19       27.408200
  20       29.055766
 
  0.1616162E+00  0.0000000E+00  0.1616162E+00  0.1666667E-02
   1       -5.751579
   2        3.648636
   3        4.496345
   4        4.496354
   5        7.367295
   6        9.838117
   7        9.838125
   8        9.859662
   9       12.087448
  10       13.823608
  11       15.176440
  12       17.571738
  13       17.571740
  14       18.135766
  15       23.698417
  16       25.005351
  17       25.005359
  18       26.206053
  19       27.314117
  20       29.098377
 
  0.1666667E+00  0.0000000E+00  0.1666667E+00  0.1666667E-02
   1       -5.723338
   2        3.561784
   3        4.451124
   4        4.451133
   5        7.330524
   6        9.827182
   7        9.917467
   8        9.917476
   9       12.125956
  10       13.855221
  11       15.267593
  12       17.619505
  13       17.619508
  14       18.192069
  15       23.847368
  16       24.872123
  17       24.872130
  18       26.065882
  19       27.219757
  20       29.143015
 
  0.1717172E+00  0.0000000E+00  0.1717172E+00  0.1666667E-02
   1       -5.694247
   2        3.474581
   3        4.406204
   4        4.406213
   5        7.293848
   6        9.787438
   7        9.997512
   8        9.997521
   9       12.172926
  10       13.887804
  11       15.360134
  12       17.668501
  13       17.668503
  14       18.249025
  15       23.997772
  16       24.739491
  17       24.739498
  18       25.925708
  19       27.125180
  20       29.189769
 
  0.1767677E+00  0.0000000E+00  0.1767677E+00  0.1666667E-02
   1       -5.664313
   2        3.387063
   3        4.361616
   4        4.361625
   5        7.257315
   6        9.741273
   7       10.078215
   8       10.078224
   9       12.227542
  10       13.921356
  11       15.453993
  12       17.718685
  13       17.718687
  14       18.306675
  15       24.149417
  16       24.607540
  17       24.607547
  18       25.785591
  19       27.030447
  20       29.238737
 
  0.1818182E+00  0.0000000E+00  0.1818182E+00  0.1666667E-02
   1       -5.633534
   2        3.299258
   3        4.317390
   4        4.317399
   5        7.220968
   6        9.689535
   7       10.159542
   8       10.159550
   9       12.288973
  10       13.955877
  11       15.549097
  12       17.770012
  13       17.770015
  14       18.365064
  15       24.302088
  16       24.476354
  17       24.476361
  18       25.645591
  19       26.935615
  20       29.290024
 
  0.1868687E+00  0.0000000E+00  0.1868687E+00  0.1666667E-02
   1       -5.601912
   2        3.211198
   3        4.273555
   4        4.273564
   5        7.184852
   6        9.633043
   7       10.241461
   8       10.241469
   9       12.356418
  10       13.991366
  11       15.645375
  12       17.822431
  13       17.822434
  14       18.424233
  15       24.346022
  16       24.346029
  17       24.455569
  18       25.505758
  19       26.840746
  20       29.343742
 
  0.1919192E+00  0.0000000E+00  0.1919192E+00  0.1666667E-02
   1       -5.569447
   2        3.122907
   3        4.230137
   4        4.230146
   5        7.149010
   6        9.572555
   7       10.323943
   8       10.323952
   9       12.429136
  10       14.027823
  11       15.742756
  12       17.875886
  13       17.875888
  14       18.484222
  15       24.216636
  16       24.216643
  17       24.609636
  18       25.366141
  19       26.745901
  20       29.400012
 
  0.1969697E+00  0.0000000E+00  0.1969697E+00  0.1666667E-02
   1       -5.536141
   2        3.034411
   3        4.187161
   4        4.187170
   5        7.113480
   6        9.508751
   7       10.406961
   8       10.406970
   9       12.506459
  10       14.065249
  11       15.841168
  12       17.930309
  13       17.930312
  14       18.545073
  15       24.088292
  16       24.088299
  17       24.764064
  18       25.226784
  19       26.651140
  20       29.458965
 
  0.2020202E+00  0.0000000E+00  0.2020202E+00  0.1666667E-02
   1       -5.502001
   2        2.945732
   3        4.144648
   4        4.144657
   5        7.078294
   6        9.442235
   7       10.490486
   8       10.490495
   9       12.587794
  10       14.103641
  11       15.940539
  12       17.985616
  13       17.985618
  14       18.606823
  15       23.961043
  16       23.961051
  17       24.918621
  18       25.087565
  19       26.556527
  20       29.520723
 
  0.2070707E+00  0.0000000E+00  0.2070707E+00  0.1666667E-02
   1       -5.467013
   2        2.856890
   3        4.102623
   4        4.102632
   5        7.043499
   6        9.373535
   7       10.574504
   8       10.574513
   9       12.672631
  10       14.143001
  11       16.040801
  12       18.041753
  13       18.041755
  14       18.669511
  15       23.835119
  16       23.835126
  17       24.948855
  18       25.073106
  19       26.462139
  20       29.585562
 
  0.2121212E+00  0.0000000E+00  0.2121212E+00  0.1666667E-02
   1       -5.431199
   2        2.767903
   3        4.061099
   4        4.061108
   5        7.009122
   6        9.303108
   7       10.658986
   8       10.658995
   9       12.760502
  10       14.183327
  11       16.141870
  12       18.098599
  13       18.098601
  14       18.733174
  15       23.710542
  16       23.710550
  17       24.810507
  18       25.227215
  19       26.368015
  20       29.653410
 
  0.2171717E+00  0.0000000E+00  0.2171717E+00  0.1666667E-02
   1       -5.394556
   2        2.678780
   3        4.020095
   4        4.020104
   5        6.975188
   6        9.231347
   7       10.743912
   8       10.743921
   9       12.851026
  10       14.224619
  11       16.243673
  12       18.156045
  13       18.156048
  14       18.797838
  15       23.587444
  16       23.587451
  17       24.672540
  18       25.380730
  19       26.274232
  20       29.724533
 
  0.2222222E+00  0.0000000E+00  0.2222222E+00  0.1666667E-02
   1       -5.357081
   2        2.589549
   3        3.979631
   4        3.979640
   5        6.941744
   6        9.158591
   7       10.829265
   8       10.829274
   9       12.943865
  10       14.266878
  11       16.346133
  12       18.213981
  13       18.213983
  14       18.863545
  15       23.466010
  16       23.466018
  17       24.535032
  18       25.533402
  19       26.180868
  20       29.799095
 
  0.2272727E+00  0.0000000E+00  0.2272727E+00  0.1666667E-02
   1       -5.318780
   2        2.500230
   3        3.939721
   4        3.939730
   5        6.908810
   6        9.085137
   7       10.915027
   8       10.915036
   9       13.038733
  10       14.310101
  11       16.449167
  12       18.272258
  13       18.272260
  14       18.930335
  15       23.346383
  16       23.346391
  17       24.397985
  18       25.684997
  19       26.087994
  20       29.877264
 
  0.2323232E+00  0.0000000E+00  0.2323232E+00  0.1666667E-02
   1       -5.279649
   2        2.410833
   3        3.900381
   4        3.900390
   5        6.876414
   6        9.011246
   7       11.001181
   8       11.001190
   9       13.135379
  10       14.354290
  11       16.552700
  12       18.330716
  13       18.330718
  14       18.998262
  15       23.228740
  16       23.228748
  17       24.261426
  18       25.835283
  19       25.995720
  20       29.959224
 
  0.2373737E+00  0.0000000E+00  0.2373737E+00  0.1666667E-02
   1       -5.239703
   2        2.321371
   3        3.861622
   4        3.861631
   5        6.844581
   6        8.937113
   7       11.087712
   8       11.087721
   9       13.233575
  10       14.399443
  11       16.656627
  12       18.389164
  13       18.389167
  14       19.067294
  15       23.113277
  16       23.113285
  17       24.125378
  18       25.904057
  19       25.983951
  20       30.045105
 
  0.2424242E+00  0.0000000E+00  0.2424242E+00  0.1666667E-02
   1       -5.198938
   2        2.231860
   3        3.823457
   4        3.823466
   5        6.813338
   6        8.862937
   7       11.174604
   8       11.174614
   9       13.333132
  10       14.445560
  11       16.760864
  12       18.447391
  13       18.447394
  14       19.137492
  15       23.000222
  16       23.000230
  17       23.989865
  18       25.813125
  19       26.130785
  20       30.135088
 
  0.2474747E+00  0.0000000E+00  0.2474747E+00  0.1666667E-02
   1       -5.157358
   2        2.142311
   3        3.785900
   4        3.785909
   5        6.782706
   6        8.788882
   7       11.261846
   8       11.261855
   9       13.433883
  10       14.492640
  11       16.865313
  12       18.505152
  13       18.505154
  14       19.208883
  15       22.889832
  16       22.889840
  17       23.854906
  18       25.723014
  19       26.275545
  20       30.229317
 
  0.2525253E+00  0.0000000E+00  0.2525253E+00  0.1666667E-02
   1       -5.114965
   2        2.052739
   3        3.748961
   4        3.748970
   5        6.752711
   6        8.715089
   7       11.349423
   8       11.349432
   9       13.535679
  10       14.540684
  11       16.969870
  12       18.562165
  13       18.562168
  14       19.281493
  15       22.782397
  16       22.782405
  17       23.720522
  18       25.633819
  19       26.418002
  20       30.328055
 
  0.2575758E+00  0.0000000E+00  0.2575758E+00  0.1666667E-02
   1       -5.071763
   2        1.963154
   3        3.712651
   4        3.712659
   5        6.723372
   6        8.641684
   7       11.437325
   8       11.437334
   9       13.638386
  10       14.589690
  11       17.074427
  12       18.618109
  13       18.618112
  14       19.355347
  15       22.678248
  16       22.678256
  17       23.586731
  18       25.545641
  19       26.557939
  20       30.430996
 
  0.2626263E+00  0.0000000E+00  0.2626263E+00  0.1666667E-02
   1       -5.027759
   2        1.873570
   3        3.676979
   4        3.676987
   5        6.694712
   6        8.568774
   7       11.525538
   8       11.525547
   9       13.741885
  10       14.639658
  11       17.178863
  12       18.672615
  13       18.672618
  14       19.430469
  15       22.577760
  16       22.577768
  17       23.453549
  18       25.458588
  19       26.695159
  20       30.539018
 
  0.2676768E+00  0.0000000E+00  0.2676768E+00  0.1666667E-02
   1       -4.982954
   2        1.783997
   3        3.641955
   4        3.641964
   5        6.666749
   6        8.496455
   7       11.614055
   8       11.614064
   9       13.846072
  10       14.690588
  11       17.283058
  12       18.725264
  13       18.725266
  14       19.506882
  15       22.481359
  16       22.481367
  17       23.320994
  18       25.372776
  19       26.829482
  20       30.651116
 
  0.2727273E+00  0.0000000E+00  0.2727273E+00  0.1666667E-02
   1       -4.937348
   2        1.694447
   3        3.607588
   4        3.607597
   5        6.639503
   6        8.424810
   7       11.702866
   8       11.702875
   9       13.950851
  10       14.742478
  11       17.386879
  12       18.775579
  13       18.775581
  14       19.584605
  15       22.389526
  16       22.389534
  17       23.189080
  18       25.288326
  19       26.960755
  20       30.767760
 
  0.2777778E+00  0.0000000E+00  0.2777778E+00  0.1666667E-02
   1       -4.890946
   2        1.604932
   3        3.573886
   4        3.573894
   5        6.612992
   6        8.353912
   7       11.791962
   8       11.791971
   9       14.056136
  10       14.795329
  11       17.490183
  12       18.823027
  13       18.823029
  14       19.663660
  15       22.302799
  16       22.302807
  17       23.057821
  18       25.205372
  19       27.088852
  20       30.895593
 
  0.2828283E+00  0.0000000E+00  0.2828283E+00  0.1666667E-02
   1       -4.843751
   2        1.515451
   3        3.540855
   4        3.540864
   5        6.587228
   6        8.283828
   7       11.881323
   8       11.881333
   9       14.161846
  10       14.849139
  11       17.592816
  12       18.867008
  13       18.867011
  14       19.744061
  15       22.221752
  16       22.221760
  17       22.927198
  18       25.124045
  19       27.213676
  20       31.027973
 
  0.2878788E+00  0.0000000E+00  0.2878788E+00  0.1666667E-02
   1       -4.795765
   2        1.426039
   3        3.508506
   4        3.508515
   5        6.562240
   6        8.214614
   7       11.970966
   8       11.970975
   9       14.267910
  10       14.903908
  11       17.694613
  12       18.906889
  13       18.906892
  14       19.825833
  15       22.147077
  16       22.147085
  17       22.797290
  18       25.044518
  19       27.335162
  20       31.060619
 
  0.2929293E+00  0.0000000E+00  0.2929293E+00  0.1666667E-02
   1       -4.746993
   2        1.336696
   3        3.476845
   4        3.476853
   5        6.538037
   6        8.146323
   7       12.060871
   8       12.060881
   9       14.374260
  10       14.959636
  11       17.795398
  12       18.941970
  13       18.941973
  14       19.908988
  15       22.079446
  16       22.079454
  17       22.668075
  18       24.966945
  19       27.453274
  20       30.932342
 
  0.2979798E+00  0.0000000E+00  0.2979798E+00  0.1666667E-02
   1       -4.697438
   2        1.247431
   3        3.445877
   4        3.445886
   5        6.514635
   6        8.078999
   7       12.151032
   8       12.151042
   9       14.480831
  10       15.016322
  11       17.894980
  12       18.971530
  13       18.971533
  14       19.993540
  15       22.019582
  16       22.019590
  17       22.539565
  18       24.891502
  19       27.568007
  20       30.835621
 
  0.3030303E+00  0.0000000E+00  0.3030303E+00  0.1666667E-02
   1       -4.647104
   2        1.158257
   3        3.415610
   4        3.415618
   5        6.492050
   6        8.012682
   7       12.241443
   8       12.241452
   9       14.587566
  10       15.073965
  11       17.993151
  12       18.994845
  13       18.994848
  14       20.079503
  15       21.968208
  16       21.968216
  17       22.411771
  18       24.818381
  19       27.679384
  20       30.719308
 
  0.3080808E+00  0.0000000E+00  0.3080808E+00  0.1666667E-02
   1       -4.595996
   2        1.069184
   3        3.386048
   4        3.386057
   5        6.470294
   6        7.947409
   7       12.332096
   8       12.332106
   9       14.694411
  10       15.132565
  11       18.089691
  12       19.011224
  13       19.011227