       N       E                     dE             d eps       ncg     rms          rms(c)
DAV:   1     0.843057400489E+01    0.84306E+01   -0.28471E+03 24024   0.295E+02
DAV:   2    -0.891358046300E+01   -0.17344E+02   -0.16484E+02 30912   0.642E+01
DAV:   3    -0.941294485257E+01   -0.49936E+00   -0.49609E+00 30208   0.775E+00
DAV:   4    -0.941536769465E+01   -0.24228E-02   -0.24224E-02 30052   0.665E-01
DAV:   5    -0.941538018718E+01   -0.12493E-04   -0.12493E-04 29532   0.475E-02
DAV:   6    -0.941538028399E+01   -0.96816E-07   -0.97112E-07 30692   0.428E-03
DAV:   7    -0.941538028446E+01   -0.46987E-09   -0.83411E-09 26108   0.397E-04
DAV:   8    -0.941538028532E+01   -0.86391E-09   -0.61090E-10 24144   0.957E-05
   1 F= -.94153803E+01 E0= -.94153801E+01  d E =-.306222E-06
