 vasp.5.3.3 18Dez12 (build Apr 06 2015 16:58:45) complex                        
  
 executed on             LinuxIFC date 2015.04.22  14:33:56
 running on   16 total cores
 distrk:  each k-point on   16 cores,    1 groups
 distr:  one band on NCORES_PER_BAND=  16 cores,    1 groups


--------------------------------------------------------------------------------------------------------


 INCAR:
 POTCAR:    PAW_PBE Si 05Jan2001                  

 ----------------------------------------------------------------------------- 
|                                                                             |
|           W    W    AA    RRRRR   N    N  II  N    N   GGGG   !!!           |
|           W    W   A  A   R    R  NN   N  II  NN   N  G    G  !!!           |
|           W    W  A    A  R    R  N N  N  II  N N  N  G       !!!           |
|           W WW W  AAAAAA  RRRRR   N  N N  II  N  N N  G  GGG   !            |
|           WW  WW  A    A  R   R   N   NN  II  N   NN  G    G                |
|           W    W  A    A  R    R  N    N  II  N    N   GGGG   !!!           |
|                                                                             |
|      For optimal performance we recommend that you set                      |
|        NPAR = 4 - approx SQRT( number of cores)                             |
|      (number of cores/NPAR must be integer)                                 |
|      This setting will greatly improve the performance of VASP for DFT.     |
|      The default NPAR=number of cores might be grossly inefficient          |
|      on modern multi-core architectures or massively parallel machines.     |
|      Do your own testing.                                                   |
|      Unfortunately you need to use the default for hybrid, GW and RPA       |
|      calculations.                                                          |
|                                                                             |
 ----------------------------------------------------------------------------- 

 POTCAR:    PAW_PBE Si 05Jan2001                  
   VRHFIN =Si: s2p2                                                             
   LEXCH  = PE                                                                  
   EATOM  =   103.0669 eV,    7.5752 Ry                                         
                                                                                
   TITEL  = PAW_PBE Si 05Jan2001                                                
   LULTRA =        F    use ultrasoft PP ?                                      
   IUNSCR =        1    unscreen: 0-lin 1-nonlin 2-no                           
   RPACOR =    1.500    partial core radius                                     
   POMASS =   28.085; ZVAL   =    4.000    mass and valenz                      
   RCORE  =    1.900    outmost cutoff radius                                   
   RWIGS  =    2.480; RWIGS  =    1.312    wigner-seitz radius (au A)           
   ENMAX  =  245.345; ENMIN  =  184.009 eV                                      
   ICORE  =        2    local potential                                         
   LCOR   =        T    correct aug charges                                     
   LPAW   =        T    paw PP                                                  
   EAUG   =  322.069                                                            
   DEXC   =    0.000                                                            
   RMAX   =    1.950    core radius for proj-oper                               
   RAUG   =    1.300    factor for augmentation sphere                          
   RDEP   =    1.993    radius for radial grids                                 
   RDEPT  =    1.837    core radius for aug-charge                              
                                                                                
   Atomic configuration                                                         
    6 entries                                                                   
     n  l   j            E        occ.                                          
     1  0  0.50     -1785.8828   2.0000                                         
     2  0  0.50      -139.4969   2.0000                                         
     2  1  1.50       -95.5546   6.0000                                         
     3  0  0.50       -10.8127   2.0000                                         
     3  1  0.50        -4.0811   2.0000                                         
     3  2  1.50        -4.0817   0.0000                                         
   Description                                                                  
     l       E           TYP  RCUT    TYP  RCUT                                 
     0    -10.8127223     23  1.900                                             
     0     -7.6451159     23  1.900                                             
     1     -4.0811372     23  1.900                                             
     1      2.4879257     23  1.900                                             
     2     -4.0817478      7  1.900                                             
  local pseudopotential read in
  partial core-charges read in
  partial kinetic energy density read in
  atomic valenz-charges read in
  non local Contribution for L=           0  read in
    real space projection operators read in
  non local Contribution for L=           0  read in
    real space projection operators read in
  non local Contribution for L=           1  read in
    real space projection operators read in
  non local Contribution for L=           1  read in
    real space projection operators read in
    PAW grid and wavefunctions read in
 
   number of l-projection  operators is LMAX  =           4
   number of lm-projection operators is LMMAX =           8
 
  PAW_PBE Si 05Jan2001                  :
 energy of atom  1       EATOM= -103.0669
 kinetic energy error for atom=    0.0006 (will be added to EATOM!!)
 
 
 POSCAR: Si                                      
  positions in direct lattice
  No initial velocities read in
 exchange correlation table for  LEXCH =        8
   RHO(1)=    0.500       N(1)  =     2000
   RHO(2)=  100.500       N(2)  =     4000
 


--------------------------------------------------------------------------------------------------------


 ion  position               nearest neighbor table
   1  0.000  0.000  0.000-   2 2.37   2 2.37   2 2.37   2 2.37
   2  0.250  0.250  0.250-   1 2.37   1 2.37   1 2.37   1 2.37
 
  LATTYP: Found a face centered cubic cell.
 ALAT       =     5.4687200000
  
  Lattice vectors:
  
 A1 = (   0.0000000000,   2.7343600000,   2.7343600000)
 A2 = (   2.7343600000,   0.0000000000,   2.7343600000)
 A3 = (   2.7343600000,   2.7343600000,   0.0000000000)


Analysis of symmetry for initial positions (statically):
=====================================================================
 Subroutine PRICEL returns:
 Original cell was already a primitive cell.
 

 Routine SETGRP: Setting up the symmetry group for a 
 face centered cubic supercell.


 Subroutine GETGRP returns: Found 48 space group operations
 (whereof 24 operations were pure point group operations)
 out of a pool of 48 trial point group operations.


The static configuration has the point symmetry T_d .
 The point group associated with its full space group is O_h .


Analysis of symmetry for dynamics (positions and initial velocities):
=====================================================================
 Subroutine PRICEL returns:
 Original cell was already a primitive cell.
 

 Routine SETGRP: Setting up the symmetry group for a 
 face centered cubic supercell.


 Subroutine GETGRP returns: Found 48 space group operations
 (whereof 24 operations were pure point group operations)
 out of a pool of 48 trial point group operations.


The dynamic configuration has the point symmetry T_d .
 The point group associated with its full space group is O_h .


 irot  :   1
 --------------------------------------------------------------------
 isymop:   1   0   0
           0   1   0
           0   0   1

 gtrans:     0.0000000     0.0000000     0.0000000

 ptrans:     0.0000000     0.0000000     0.0000000
 rotmap:
 (   1->   1)  (   2->   2) 


 irot  :   2
 --------------------------------------------------------------------
 isymop:   0   0   1
           1   0   0
           0   1   0

 gtrans:     0.0000000     0.0000000     0.0000000

 ptrans:     0.0000000     0.0000000     0.0000000
 rotmap:
 (   1->   1)  (   2->   2) 


 irot  :   3
 --------------------------------------------------------------------
 isymop:   0   1   0
           0   0   1
           1   0   0

 gtrans:     0.0000000     0.0000000     0.0000000

 ptrans:     0.0000000     0.0000000     0.0000000
 rotmap:
 (   1->   1)  (   2->   2) 


 irot  :   4
 --------------------------------------------------------------------
 isymop:  -1  -1  -1
           0   0   1
           1   0   0

 gtrans:     0.0000000     0.0000000     0.0000000

 ptrans:     0.0000000     0.0000000     0.0000000
 rotmap:
 (   1->   1)  (   2->   2) 


 irot  :   5
 --------------------------------------------------------------------
 isymop:  -1  -1  -1
           0   1   0
           0   0   1

 gtrans:     0.0000000     0.0000000     0.0000000

 ptrans:     0.0000000     0.0000000     0.0000000
 rotmap:
 (   1->   1)  (   2->   2) 


 irot  :   6
 --------------------------------------------------------------------
 isymop:  -1  -1  -1
           1   0   0
           0   1   0

 gtrans:     0.0000000     0.0000000     0.0000000

 ptrans:     0.0000000     0.0000000     0.0000000
 rotmap:
 (   1->   1)  (   2->   2) 


 irot  :   7
 --------------------------------------------------------------------
 isymop:   0   1   0
           1   0   0
          -1  -1  -1

 gtrans:     0.0000000     0.0000000     0.0000000

 ptrans:     0.0000000     0.0000000     0.0000000
 rotmap:
 (   1->   1)  (   2->   2) 


 irot  :   8
 --------------------------------------------------------------------
 isymop:   1   0   0
           0   0   1
          -1  -1  -1

 gtrans:     0.0000000     0.0000000     0.0000000

 ptrans:     0.0000000     0.0000000     0.0000000
 rotmap:
 (   1->   1)  (   2->   2) 


 irot  :   9
 --------------------------------------------------------------------
 isymop:   0   0   1
           0   1   0
          -1  -1  -1

 gtrans:     0.0000000     0.0000000     0.0000000

 ptrans:     0.0000000     0.0000000     0.0000000
 rotmap:
 (   1->   1)  (   2->   2) 


 irot  :  10
 --------------------------------------------------------------------
 isymop:   0   0   1
          -1  -1  -1
           0   1   0

 gtrans:     0.0000000     0.0000000     0.0000000

 ptrans:     0.0000000     0.0000000     0.0000000
 rotmap:
 (   1->   1)  (   2->   2) 


 irot  :  11
 --------------------------------------------------------------------
 isymop:   0   1   0
          -1  -1  -1
           1   0   0

 gtrans:     0.0000000     0.0000000     0.0000000

 ptrans:     0.0000000     0.0000000     0.0000000
 rotmap:
 (   1->   1)  (   2->   2) 


 irot  :  12
 --------------------------------------------------------------------
 isymop:   1   0   0
          -1  -1  -1
           0   0   1

 gtrans:     0.0000000     0.0000000     0.0000000

 ptrans:     0.0000000     0.0000000     0.0000000
 rotmap:
 (   1->   1)  (   2->   2) 


 irot  :  13
 --------------------------------------------------------------------
 isymop:  -1  -1  -1
           0   1   0
           1   0   0

 gtrans:     0.0000000     0.0000000     0.0000000

 ptrans:     0.0000000     0.0000000     0.0000000
 rotmap:
 (   1->   1)  (   2->   2) 


 irot  :  14
 --------------------------------------------------------------------
 isymop:  -1  -1  -1
           1   0   0
           0   0   1

 gtrans:     0.0000000     0.0000000     0.0000000

 ptrans:     0.0000000     0.0000000     0.0000000
 rotmap:
 (   1->   1)  (   2->   2) 


 irot  :  15
 --------------------------------------------------------------------
 isymop:  -1  -1  -1
           0   0   1
           0   1   0

 gtrans:     0.0000000     0.0000000     0.0000000

 ptrans:     0.0000000     0.0000000     0.0000000
 rotmap:
 (   1->   1)  (   2->   2) 


 irot  :  16
 --------------------------------------------------------------------
 isymop:   0   1   0
           0   0   1
          -1  -1  -1

 gtrans:     0.0000000     0.0000000     0.0000000

 ptrans:     0.0000000     0.0000000     0.0000000
 rotmap:
 (   1->   1)  (   2->   2) 


 irot  :  17
 --------------------------------------------------------------------
 isymop:   1   0   0
           0   1   0
          -1  -1  -1

 gtrans:     0.0000000     0.0000000     0.0000000

 ptrans:     0.0000000     0.0000000     0.0000000
 rotmap:
 (   1->   1)  (   2->   2) 


 irot  :  18
 --------------------------------------------------------------------
 isymop:   0   0   1
           1   0   0
          -1  -1  -1

 gtrans:     0.0000000     0.0000000     0.0000000

 ptrans:     0.0000000     0.0000000     0.0000000
 rotmap:
 (   1->   1)  (   2->   2) 


 irot  :  19
 --------------------------------------------------------------------
 isymop:   1   0   0
          -1  -1  -1
           0   1   0

 gtrans:     0.0000000     0.0000000     0.0000000

 ptrans:     0.0000000     0.0000000     0.0000000
 rotmap:
 (   1->   1)  (   2->   2) 


 irot  :  20
 --------------------------------------------------------------------
 isymop:   0   0   1
          -1  -1  -1
           1   0   0

 gtrans:     0.0000000     0.0000000     0.0000000

 ptrans:     0.0000000     0.0000000     0.0000000
 rotmap:
 (   1->   1)  (   2->   2) 


 irot  :  21
 --------------------------------------------------------------------
 isymop:   0   1   0
          -1  -1  -1
           0   0   1

 gtrans:     0.0000000     0.0000000     0.0000000

 ptrans:     0.0000000     0.0000000     0.0000000
 rotmap:
 (   1->   1)  (   2->   2) 


 irot  :  22
 --------------------------------------------------------------------
 isymop:   1   0   0
           0   0   1
           0   1   0

 gtrans:     0.0000000     0.0000000     0.0000000

 ptrans:     0.0000000     0.0000000     0.0000000
 rotmap:
 (   1->   1)  (   2->   2) 


 irot  :  23
 --------------------------------------------------------------------
 isymop:   0   1   0
           1   0   0
           0   0   1

 gtrans:     0.0000000     0.0000000     0.0000000

 ptrans:     0.0000000     0.0000000     0.0000000
 rotmap:
 (   1->   1)  (   2->   2) 


 irot  :  24
 --------------------------------------------------------------------
 isymop:   0   0   1
           0   1   0
           1   0   0

 gtrans:     0.0000000     0.0000000     0.0000000

 ptrans:     0.0000000     0.0000000     0.0000000
 rotmap:
 (   1->   1)  (   2->   2) 


 irot  :  25
 --------------------------------------------------------------------
 isymop:  -1   0   0
           0  -1   0
           0   0  -1

 gtrans:     0.2500000     0.2500000     0.2500000

 ptrans:     0.0000000     0.0000000     0.0000000
 rotmap:
 (   1->   2)  (   2->   1) 


 irot  :  26
 --------------------------------------------------------------------
 isymop:   0   0  -1
          -1   0   0
           0  -1   0

 gtrans:     0.2500000     0.2500000     0.2500000

 ptrans:     0.0000000     0.0000000     0.0000000
 rotmap:
 (   1->   2)  (   2->   1) 


 irot  :  27
 --------------------------------------------------------------------
 isymop:   0  -1   0
           0   0  -1
          -1   0   0

 gtrans:     0.2500000     0.2500000     0.2500000

 ptrans:     0.0000000     0.0000000     0.0000000
 rotmap:
 (   1->   2)  (   2->   1) 


 irot  :  28
 --------------------------------------------------------------------
 isymop:   1   1   1
           0   0  -1
          -1   0   0

 gtrans:     0.2500000     0.2500000     0.2500000

 ptrans:     0.0000000     0.0000000     0.0000000
 rotmap:
 (   1->   2)  (   2->   1) 


 irot  :  29
 --------------------------------------------------------------------
 isymop:   1   1   1
           0  -1   0
           0   0  -1

 gtrans:     0.2500000     0.2500000     0.2500000

 ptrans:     0.0000000     0.0000000     0.0000000
 rotmap:
 (   1->   2)  (   2->   1) 


 irot  :  30
 --------------------------------------------------------------------
 isymop:   1   1   1
          -1   0   0
           0  -1   0

 gtrans:     0.2500000     0.2500000     0.2500000

 ptrans:     0.0000000     0.0000000     0.0000000
 rotmap:
 (   1->   2)  (   2->   1) 


 irot  :  31
 --------------------------------------------------------------------
 isymop:   0  -1   0
          -1   0   0
           1   1   1

 gtrans:     0.2500000     0.2500000     0.2500000

 ptrans:     0.0000000     0.0000000     0.0000000
 rotmap:
 (   1->   2)  (   2->   1) 


 irot  :  32
 --------------------------------------------------------------------
 isymop:  -1   0   0
           0   0  -1
           1   1   1

 gtrans:     0.2500000     0.2500000     0.2500000

 ptrans:     0.0000000     0.0000000     0.0000000
 rotmap:
 (   1->   2)  (   2->   1) 


 irot  :  33
 --------------------------------------------------------------------
 isymop:   0   0  -1
           0  -1   0
           1   1   1

 gtrans:     0.2500000     0.2500000     0.2500000

 ptrans:     0.0000000     0.0000000     0.0000000
 rotmap:
 (   1->   2)  (   2->   1) 


 irot  :  34
 --------------------------------------------------------------------
 isymop:   0   0  -1
           1   1   1
           0  -1   0

 gtrans:     0.2500000     0.2500000     0.2500000

 ptrans:     0.0000000     0.0000000     0.0000000
 rotmap:
 (   1->   2)  (   2->   1) 


 irot  :  35
 --------------------------------------------------------------------
 isymop:   0  -1   0
           1   1   1
          -1   0   0

 gtrans:     0.2500000     0.2500000     0.2500000

 ptrans:     0.0000000     0.0000000     0.0000000
 rotmap:
 (   1->   2)  (   2->   1) 


 irot  :  36
 --------------------------------------------------------------------
 isymop:  -1   0   0
           1   1   1
           0   0  -1

 gtrans:     0.2500000     0.2500000     0.2500000

 ptrans:     0.0000000     0.0000000     0.0000000
 rotmap:
 (   1->   2)  (   2->   1) 


 irot  :  37
 --------------------------------------------------------------------
 isymop:   1   1   1
           0  -1   0
          -1   0   0

 gtrans:     0.2500000     0.2500000     0.2500000

 ptrans:     0.0000000     0.0000000     0.0000000
 rotmap:
 (   1->   2)  (   2->   1) 


 irot  :  38
 --------------------------------------------------------------------
 isymop:   1   1   1
          -1   0   0
           0   0  -1

 gtrans:     0.2500000     0.2500000     0.2500000

 ptrans:     0.0000000     0.0000000     0.0000000
 rotmap:
 (   1->   2)  (   2->   1) 


 irot  :  39
 --------------------------------------------------------------------
 isymop:   1   1   1
           0   0  -1
           0  -1   0

 gtrans:     0.2500000     0.2500000     0.2500000

 ptrans:     0.0000000     0.0000000     0.0000000
 rotmap:
 (   1->   2)  (   2->   1) 


 irot  :  40
 --------------------------------------------------------------------
 isymop:   0  -1   0
           0   0  -1
           1   1   1

 gtrans:     0.2500000     0.2500000     0.2500000

 ptrans:     0.0000000     0.0000000     0.0000000
 rotmap:
 (   1->   2)  (   2->   1) 


 irot  :  41
 --------------------------------------------------------------------
 isymop:  -1   0   0
           0  -1   0
           1   1   1

 gtrans:     0.2500000     0.2500000     0.2500000

 ptrans:     0.0000000     0.0000000     0.0000000
 rotmap:
 (   1->   2)  (   2->   1) 


 irot  :  42
 --------------------------------------------------------------------
 isymop:   0   0  -1
          -1   0   0
           1   1   1

 gtrans:     0.2500000     0.2500000     0.2500000

 ptrans:     0.0000000     0.0000000     0.0000000
 rotmap:
 (   1->   2)  (   2->   1) 


 irot  :  43
 --------------------------------------------------------------------
 isymop:  -1   0   0
           1   1   1
           0  -1   0

 gtrans:     0.2500000     0.2500000     0.2500000

 ptrans:     0.0000000     0.0000000     0.0000000
 rotmap:
 (   1->   2)  (   2->   1) 


 irot  :  44
 --------------------------------------------------------------------
 isymop:   0   0  -1
           1   1   1
          -1   0   0

 gtrans:     0.2500000     0.2500000     0.2500000

 ptrans:     0.0000000     0.0000000     0.0000000
 rotmap:
 (   1->   2)  (   2->   1) 


 irot  :  45
 --------------------------------------------------------------------
 isymop:   0  -1   0
           1   1   1
           0   0  -1

 gtrans:     0.2500000     0.2500000     0.2500000

 ptrans:     0.0000000     0.0000000     0.0000000
 rotmap:
 (   1->   2)  (   2->   1) 


 irot  :  46
 --------------------------------------------------------------------
 isymop:  -1   0   0
           0   0  -1
           0  -1   0

 gtrans:     0.2500000     0.2500000     0.2500000

 ptrans:     0.0000000     0.0000000     0.0000000
 rotmap:
 (   1->   2)  (   2->   1) 


 irot  :  47
 --------------------------------------------------------------------
 isymop:   0  -1   0
          -1   0   0
           0   0  -1

 gtrans:     0.2500000     0.2500000     0.2500000

 ptrans:     0.0000000     0.0000000     0.0000000
 rotmap:
 (   1->   2)  (   2->   1) 


 irot  :  48
 --------------------------------------------------------------------
 isymop:   0   0  -1
           0  -1   0
          -1   0   0

 gtrans:     0.2500000     0.2500000     0.2500000

 ptrans:     0.0000000     0.0000000     0.0000000
 rotmap:
 (   1->   2)  (   2->   1) 
 
 
 KPOINTS: kpoints for bandstructure L-G-X-U K-G   
  interpolating k-points between supplied coordinates
  k-points in reciprocal lattice
Space group operators:
 irot       det(A)        alpha          n_x          n_y          n_z        tau_x        tau_y        tau_z
    1     1.000000     0.000000     1.000000     0.000000     0.000000     0.000000     0.000000     0.000000
    2     1.000000   120.000000    -0.577350    -0.577350    -0.577350     0.000000     0.000000     0.000000
    3     1.000000   120.000000     0.577350     0.577350     0.577350     0.000000     0.000000     0.000000
    4    -1.000000    90.000000     0.000000     0.000000    -1.000000     0.000000     0.000000     0.000000
    5    -1.000000   180.000000     0.000000     0.707107     0.707107     0.000000     0.000000     0.000000
    6    -1.000000    90.000000     0.000000     1.000000     0.000000     0.000000     0.000000     0.000000
    7     1.000000   180.000000     0.000000     0.000000     1.000000     0.000000     0.000000     0.000000
    8     1.000000   120.000000    -0.577350     0.577350     0.577350     0.000000     0.000000     0.000000
    9     1.000000   120.000000    -0.577350     0.577350    -0.577350     0.000000     0.000000     0.000000
   10    -1.000000    90.000000     0.000000     0.000000     1.000000     0.000000     0.000000     0.000000
   11    -1.000000    90.000000    -1.000000     0.000000     0.000000     0.000000     0.000000     0.000000
   12    -1.000000   180.000000     0.707107     0.000000     0.707107     0.000000     0.000000     0.000000
   13     1.000000   120.000000     0.577350    -0.577350     0.577350     0.000000     0.000000     0.000000
   14     1.000000   120.000000    -0.577350    -0.577350     0.577350     0.000000     0.000000     0.000000
   15     1.000000   180.000000     1.000000     0.000000     0.000000     0.000000     0.000000     0.000000
   16    -1.000000    90.000000     0.000000    -1.000000     0.000000     0.000000     0.000000     0.000000
   17    -1.000000   180.000000     0.707107     0.707107     0.000000     0.000000     0.000000     0.000000
   18    -1.000000    90.000000     1.000000     0.000000     0.000000     0.000000     0.000000     0.000000
   19     1.000000   120.000000     0.577350    -0.577350    -0.577350     0.000000     0.000000     0.000000
   20     1.000000   180.000000     0.000000     1.000000     0.000000     0.000000     0.000000     0.000000
   21     1.000000   120.000000     0.577350     0.577350    -0.577350     0.000000     0.000000     0.000000
   22    -1.000000   180.000000     0.000000    -0.707107     0.707107     0.000000     0.000000     0.000000
   23    -1.000000   180.000000     0.707107    -0.707107     0.000000     0.000000     0.000000     0.000000
   24    -1.000000   180.000000     0.707107     0.000000    -0.707107     0.000000     0.000000     0.000000
   25    -1.000000     0.000000     1.000000     0.000000     0.000000     0.250000     0.250000     0.250000
   26    -1.000000   120.000000    -0.577350    -0.577350    -0.577350     0.250000     0.250000     0.250000
   27    -1.000000   120.000000     0.577350     0.577350     0.577350     0.250000     0.250000     0.250000
   28     1.000000    90.000000     0.000000     0.000000    -1.000000     0.250000     0.250000     0.250000
   29     1.000000   180.000000     0.000000     0.707107     0.707107     0.250000     0.250000     0.250000
   30     1.000000    90.000000     0.000000     1.000000     0.000000     0.250000     0.250000     0.250000
   31    -1.000000   180.000000     0.000000     0.000000     1.000000     0.250000     0.250000     0.250000
   32    -1.000000   120.000000    -0.577350     0.577350     0.577350     0.250000     0.250000     0.250000
   33    -1.000000   120.000000    -0.577350     0.577350    -0.577350     0.250000     0.250000     0.250000
   34     1.000000    90.000000     0.000000     0.000000     1.000000     0.250000     0.250000     0.250000
   35     1.000000    90.000000    -1.000000     0.000000     0.000000     0.250000     0.250000     0.250000
   36     1.000000   180.000000     0.707107     0.000000     0.707107     0.250000     0.250000     0.250000
   37    -1.000000   120.000000     0.577350    -0.577350     0.577350     0.250000     0.250000     0.250000
   38    -1.000000   120.000000    -0.577350    -0.577350     0.577350     0.250000     0.250000     0.250000
   39    -1.000000   180.000000     1.000000     0.000000     0.000000     0.250000     0.250000     0.250000
   40     1.000000    90.000000     0.000000    -1.000000     0.000000     0.250000     0.250000     0.250000
   41     1.000000   180.000000     0.707107     0.707107     0.000000     0.250000     0.250000     0.250000
   42     1.000000    90.000000     1.000000     0.000000     0.000000     0.250000     0.250000     0.250000
   43    -1.000000   120.000000     0.577350    -0.577350    -0.577350     0.250000     0.250000     0.250000
   44    -1.000000   180.000000     0.000000     1.000000     0.000000     0.250000     0.250000     0.250000
   45    -1.000000   120.000000     0.577350     0.577350    -0.577350     0.250000     0.250000     0.250000
   46     1.000000   180.000000     0.000000    -0.707107     0.707107     0.250000     0.250000     0.250000
   47     1.000000   180.000000     0.707107    -0.707107     0.000000     0.250000     0.250000     0.250000
   48     1.000000   180.000000     0.707107     0.000000    -0.707107     0.250000     0.250000     0.250000


--------------------------------------------------------------------------------------------------------




 Dimension of arrays:
   k-points           NKPTS =    600   k-points in BZ     NKDIM =    600   number of bands    NBANDS=     20
   number of dos      NEDOS =    301   number of ions     NIONS =      2
   non local maximal  LDIM  =      4   non local SUM 2l+1 LMDIM =      8
   total plane-waves  NPLWV =  21952
   max r-space proj   IRMAX =      1   max aug-charges    IRDMAX=   2959
   dimension x,y,z NGX =    28 NGY =   28 NGZ =   28
   dimension x,y,z NGXF=    30 NGYF=   30 NGZF=   30
   support grid    NGXF=    30 NGYF=   30 NGZF=   30
   ions per type =               2
 NGX,Y,Z   is equivalent  to a cutoff of  12.04, 12.04, 12.04 a.u.
 NGXF,Y,Z  is equivalent  to a cutoff of  12.90, 12.90, 12.90 a.u.


 I would recommend the setting:
   dimension x,y,z NGX =    28 NGY =   28 NGZ =   28
 SYSTEM =  bulk	                                   
 POSCAR =  Si                                      

 Startparameter for this run:
   NWRITE =      2    write-flag & timer
   PREC   = high      normal or accurate (medium, high low for compatibility)
   ISTART =      0    job   : 0-new  1-cont  2-samecut
   ICHARG =     11    charge: 1-file 2-atom 10-const
   ISPIN  =      1    spin polarized calculation?
   LNONCOLLINEAR =      F non collinear calculations
   LSORBIT =      F    spin-orbit coupling
   INIWAV =      1    electr: 0-lowe 1-rand  2-diag
   LASPH  =      F    aspherical Exc in radial PAW
   METAGGA=      F    non-selfconsistent MetaGGA calc.

 Electronic Relaxation 1
   ENCUT  =  500.0 eV  36.75 Ry    6.06 a.u.   7.05  7.05  7.05*2*pi/ulx,y,z
   ENINI  =  500.0     initial cutoff
   ENAUG  =  322.1 eV  augmentation charge cutoff
   NELM   =    100;   NELMIN=  8; NELMDL=  0     # of ELM steps 
   EDIFF  = 0.1E-05   stopping-criterion for ELM
   LREAL  =      F    real-space projection
   NLSPLINE    = F    spline interpolate recip. space projectors
   LCOMPAT=      F    compatible to vasp.4.4
   GGA_COMPAT  = T    GGA compatible to vasp.4.4-vasp.4.6
   LMAXPAW     = -100 max onsite density
   LMAXMIX     =    2 max onsite mixed and CHGCAR
   VOSKOWN=      0    Vosko Wilk Nusair interpolation
   ROPT   =    0.00000
 Ionic relaxation
   EDIFFG = 0.1E-05   stopping-criterion for IOM
   NSW    =      0    number of steps for IOM
   NBLOCK =      1;   KBLOCK =      1    inner block; outer block 
   IBRION =     -1    ionic relax: 0-MD 1-quasi-New 2-CG
   NFREE  =      0    steps in history (QN), initial steepest desc. (CG)
   ISIF   =      2    stress and relaxation
   IWAVPR =     10    prediction:  0-non 1-charg 2-wave 3-comb
   ISYM   =      2    0-nonsym 1-usesym 2-fastsym
   LCORR  =      T    Harris-Foulkes like correction to forces

   POTIM  = 0.0500    time-step for ionic-motion
   TEIN   =    0.0    initial temperature
   TEBEG  =    0.0;   TEEND  =   0.0 temperature during run
   SMASS  =  -3.00    Nose mass-parameter (am)
   estimated Nose-frequenzy (Omega)   =  0.10E-29 period in steps =****** mass=  -0.342E-27a.u.
   SCALEE = 1.0000    scale energy and forces
   NPACO  =    256;   APACO  = 16.0  distance and # of slots for P.C.
   PSTRESS=    0.0 pullay stress

  Mass of Ions in am
   POMASS =  28.09
  Ionic Valenz
   ZVAL   =   4.00
  Atomic Wigner-Seitz radii
   RWIGS  =  -1.00
  virtual crystal weights 
   VCA    =   1.00
   NELECT =       8.0000    total number of electrons
   NUPDOWN=      -1.0000    fix difference up-down

 DOS related values:
   EMIN   =  10.00;   EMAX   =-10.00  energy-range for DOS
   EFERMI =   0.00
   ISMEAR =     0;   SIGMA  =   0.10  broadening in eV -4-tet -1-fermi 0-gaus

 Electronic relaxation 2 (details)
   IALGO  =     38    algorithm
   LDIAG  =      T    sub-space diagonalisation (order eigenvalues)
   LSUBROT=      T    optimize rotation matrix (better conditioning)
   TURBO    =      0    0=normal 1=particle mesh
   IRESTART =      0    0=no restart 2=restart with 2 vectors
   NREBOOT  =      0    no. of reboots
   NMIN     =      0    reboot dimension
   EREF     =   0.00    reference energy to select bands
   IMIX   =      4    mixing-type and parameters
     AMIX     =   0.40;   BMIX     =  1.00
     AMIX_MAG =   1.60;   BMIX_MAG =  1.00
     AMIN     =   0.10
     WC   =   100.;   INIMIX=   1;  MIXPRE=   1;  MAXMIX= -45

 Intra band minimization:
   WEIMIN = 0.0000     energy-eigenvalue tresh-hold
   EBREAK =  0.13E-08  absolut break condition
   DEPER  =   0.30     relativ break condition  

   TIME   =   0.40     timestep for ELM

  volume/ion in A,a.u.               =      20.44       137.96
  Fermi-wavevector in a.u.,A,eV,Ry     =   0.950399  1.795993 12.289565  0.903258
  Thomas-Fermi vector in A             =   2.078772
 
 Write flags
   LWAVE  =      F    write WAVECAR
   LCHARG =      F    write CHGCAR
   LVTOT  =      F    write LOCPOT, total local potential
   LVHAR  =      F    write LOCPOT, Hartree potential only
   LELF   =      F    write electronic localiz. function (ELF)
   LORBIT =     11    0 simple, 1 ext, 2 COOP (PROOUT)


 Dipole corrections
   LMONO  =      F    monopole corrections only (constant potential shift)
   LDIPOL =      F    correct potential (dipole corrections)
   IDIPOL =      0    1-x, 2-y, 3-z, 4-all directions 
   EPSILON=  1.0000000 bulk dielectric constant

 Exchange correlation treatment:
   GGA     =    PE    GGA type
   LEXCH   =     8    internal setting for exchange type
   VOSKOWN=      0    Vosko Wilk Nusair interpolation
   LHFCALC =     F    Hartree Fock is set to
   LHFONE  =     F    Hartree Fock one center treatment
   AEXX    =    0.0000 exact exchange contribution

 Linear response parameters
   LEPSILON=     F    determine dielectric tensor
   LRPA    =     F    only Hartree local field effects (RPA)
   LNABLA  =     F    use nabla operator in PAW spheres
   LVEL    =     F    velocity operator in full k-point grid
   LINTERFAST=   F  fast interpolation
   KINTER  =     0    interpolate to denser k-point grid
   CSHIFT  =0.1000    complex shift for real part using Kramers Kronig
   OMEGAMAX=  -1.0    maximum frequency
   DEG_THRESHOLD= 0.2000000E-02 threshold for treating states as degnerate
   RTIME   =    0.100 relaxation time in fs

 Orbital magnetization related:
   ORBITALMAG=     F  switch on orbital magnetization
   LCHIMAG   =     F  perturbation theory with respect to B field
   DQ        =  0.001000  dq finite difference perturbation B field



--------------------------------------------------------------------------------------------------------


 Static calculation
 charge density and potential remain constant during run
 non-spin polarized calculation
 Variant of blocked Davidson
 Davidson routine will perform the subspace rotation
 perform sub-space diagonalisation
    after iterative eigenvector-optimisation
 no mixing
 using additional bands           16
 reciprocal scheme for non local part
 use partial core corrections
 calculate Harris-corrections to forces 
   (improved forces if not selfconsistent)
 use gradient corrections 
 WARNING: stress and forces are not correct
  (second derivative of E(xc) not defined)
 use of overlap-Matrix (Vanderbilt PP)
 Gauss-broadening in eV      SIGMA  =   0.10


--------------------------------------------------------------------------------------------------------


  energy-cutoff  :      500.00
  volume of cell :       40.89
      direct lattice vectors                 reciprocal lattice vectors
     0.000000000  2.734360000  2.734360000    -0.182858146  0.182858146  0.182858146
     2.734360000  0.000000000  2.734360000     0.182858146 -0.182858146  0.182858146
     2.734360000  2.734360000  0.000000000     0.182858146  0.182858146 -0.182858146

  length of vectors
     3.866968996  3.866968996  3.866968996     0.316719599  0.316719599  0.316719599


 
 k-points in units of 2pi/SCALE and weight: kpoints for bandstructure L-G-X-U K-G   
   0.00000000  0.00000000  0.00000000       0.002
   0.00000000  0.01010101  0.00000000       0.002
   0.00000000  0.02020202  0.00000000       0.002
   0.00000000  0.03030303  0.00000000       0.002
   0.00000000  0.04040404  0.00000000       0.002
   0.00000000  0.05050505  0.00000000       0.002
   0.00000000  0.06060606  0.00000000       0.002
   0.00000000  0.07070707  0.00000000       0.002
   0.00000000  0.08080808  0.00000000       0.002
   0.00000000  0.09090909  0.00000000       0.002
   0.00000000  0.10101010  0.00000000       0.002
   0.00000000  0.11111111  0.00000000       0.002
   0.00000000  0.12121212  0.00000000       0.002
   0.00000000  0.13131313  0.00000000       0.002
   0.00000000  0.14141414  0.00000000       0.002
   0.00000000  0.15151515  0.00000000       0.002
   0.00000000  0.16161616  0.00000000       0.002
   0.00000000  0.17171717  0.00000000       0.002
   0.00000000  0.18181818  0.00000000       0.002
   0.00000000  0.19191919  0.00000000       0.002
   0.00000000  0.20202020  0.00000000       0.002
   0.00000000  0.21212121  0.00000000       0.002
   0.00000000  0.22222222  0.00000000       0.002
   0.00000000  0.23232323  0.00000000       0.002
   0.00000000  0.24242424  0.00000000       0.002
   0.00000000  0.25252525  0.00000000       0.002
   0.00000000  0.26262626  0.00000000       0.002
   0.00000000  0.27272727  0.00000000       0.002
   0.00000000  0.28282828  0.00000000       0.002
   0.00000000  0.29292929  0.00000000       0.002
   0.00000000  0.30303030  0.00000000       0.002
   0.00000000  0.31313131  0.00000000       0.002
   0.00000000  0.32323232  0.00000000       0.002
   0.00000000  0.33333333  0.00000000       0.002
   0.00000000  0.34343434  0.00000000       0.002
   0.00000000  0.35353535  0.00000000       0.002
   0.00000000  0.36363636  0.00000000       0.002
   0.00000000  0.37373737  0.00000000       0.002
   0.00000000  0.38383838  0.00000000       0.002
   0.00000000  0.39393939  0.00000000       0.002
   0.00000000  0.40404040  0.00000000       0.002
   0.00000000  0.41414141  0.00000000       0.002
   0.00000000  0.42424242  0.00000000       0.002
   0.00000000  0.43434343  0.00000000       0.002
   0.00000000  0.44444444  0.00000000       0.002
   0.00000000  0.45454545  0.00000000       0.002
   0.00000000  0.46464646  0.00000000       0.002
   0.00000000  0.47474747  0.00000000       0.002
   0.00000000  0.48484848  0.00000000       0.002
   0.00000000  0.49494949  0.00000000       0.002
   0.00000000  0.50505051  0.00000000       0.002
   0.00000000  0.51515152  0.00000000       0.002
   0.00000000  0.52525253  0.00000000       0.002
   0.00000000  0.53535354  0.00000000       0.002
   0.00000000  0.54545455  0.00000000       0.002
   0.00000000  0.55555556  0.00000000       0.002
   0.00000000  0.56565657  0.00000000       0.002
   0.00000000  0.57575758  0.00000000       0.002
   0.00000000  0.58585859  0.00000000       0.002
   0.00000000  0.59595960  0.00000000       0.002
   0.00000000  0.60606061  0.00000000       0.002
   0.00000000  0.61616162  0.00000000       0.002
   0.00000000  0.62626263  0.00000000       0.002
   0.00000000  0.63636364  0.00000000       0.002
   0.00000000  0.64646465  0.00000000       0.002
   0.00000000  0.65656566  0.00000000       0.002
   0.00000000  0.66666667  0.00000000       0.002
   0.00000000  0.67676768  0.00000000       0.002
   0.00000000  0.68686869  0.00000000       0.002
   0.00000000  0.69696970  0.00000000       0.002
   0.00000000  0.70707071  0.00000000       0.002
   0.00000000  0.71717172  0.00000000       0.002
   0.00000000  0.72727273  0.00000000       0.002
   0.00000000  0.73737374  0.00000000       0.002
   0.00000000  0.74747475  0.00000000       0.002
   0.00000000  0.75757576  0.00000000       0.002
   0.00000000  0.76767677  0.00000000       0.002
   0.00000000  0.77777778  0.00000000       0.002
   0.00000000  0.78787879  0.00000000       0.002
   0.00000000  0.79797980  0.00000000       0.002
   0.00000000  0.80808081  0.00000000       0.002
   0.00000000  0.81818182  0.00000000       0.002
   0.00000000  0.82828283  0.00000000       0.002
   0.00000000  0.83838384  0.00000000       0.002
   0.00000000  0.84848485  0.00000000       0.002
   0.00000000  0.85858586  0.00000000       0.002
   0.00000000  0.86868687  0.00000000       0.002
   0.00000000  0.87878788  0.00000000       0.002
   0.00000000  0.88888889  0.00000000       0.002
   0.00000000  0.89898990  0.00000000       0.002
   0.00000000  0.90909091  0.00000000       0.002
   0.00000000  0.91919192  0.00000000       0.002
   0.00000000  0.92929293  0.00000000       0.002
   0.00000000  0.93939394  0.00000000       0.002
   0.00000000  0.94949495  0.00000000       0.002
   0.00000000  0.95959596  0.00000000       0.002
   0.00000000  0.96969697  0.00000000       0.002
   0.00000000  0.97979798  0.00000000       0.002
   0.00000000  0.98989899  0.00000000       0.002
   0.00000000  1.00000000  0.00000000       0.002
   0.00000000  1.00000000  0.00000000       0.002
   0.00505051  1.00000000  0.00000000       0.002
   0.01010101  1.00000000 -0.00000000       0.002
   0.01515152  1.00000000  0.00000000       0.002
   0.02020202  1.00000000  0.00000000       0.002
   0.02525253  1.00000000 -0.00000000       0.002
   0.03030303  1.00000000  0.00000000       0.002
   0.03535354  1.00000000 -0.00000000       0.002
   0.04040404  1.00000000  0.00000000       0.002
   0.04545455  1.00000000  0.00000000       0.002
   0.05050505  1.00000000 -0.00000000       0.002
   0.05555556  1.00000000  0.00000000       0.002
   0.06060606  1.00000000  0.00000000       0.002
   0.06565657  1.00000000 -0.00000000       0.002
   0.07070707  1.00000000  0.00000000       0.002
   0.07575758  1.00000000  0.00000000       0.002
   0.08080808  1.00000000 -0.00000000       0.002
   0.08585859  1.00000000  0.00000000       0.002
   0.09090909  1.00000000  0.00000000       0.002
   0.09595960  1.00000000 -0.00000000       0.002
   0.10101010  1.00000000  0.00000000       0.002
   0.10606061  1.00000000  0.00000000       0.002
   0.11111111  1.00000000 -0.00000000       0.002
   0.11616162  1.00000000  0.00000000       0.002
   0.12121212  1.00000000  0.00000000       0.002
   0.12626263  1.00000000 -0.00000000       0.002
   0.13131313  1.00000000  0.00000000       0.002
   0.13636364  1.00000000  0.00000000       0.002
   0.14141414  1.00000000 -0.00000000       0.002
   0.14646465  1.00000000  0.00000000       0.002
   0.15151515  1.00000000  0.00000000       0.002
   0.15656566  1.00000000 -0.00000000       0.002
   0.16161616  1.00000000  0.00000000       0.002
   0.16666667  1.00000000  0.00000000       0.002
   0.17171717  1.00000000  0.00000000       0.002
   0.17676768  1.00000000  0.00000000       0.002
   0.18181818  1.00000000  0.00000000       0.002
   0.18686869  1.00000000  0.00000000       0.002
   0.19191919  1.00000000  0.00000000       0.002
   0.19696970  1.00000000  0.00000000       0.002
   0.20202020  1.00000000  0.00000000       0.002
   0.20707071  1.00000000  0.00000000       0.002
   0.21212121  1.00000000  0.00000000       0.002
   0.21717172  1.00000000  0.00000000       0.002
   0.22222222  1.00000000  0.00000000       0.002
   0.22727273  1.00000000  0.00000000       0.002
   0.23232323  1.00000000  0.00000000       0.002
   0.23737374  1.00000000  0.00000000       0.002
   0.24242424  1.00000000  0.00000000       0.002
   0.24747475  1.00000000  0.00000000       0.002
   0.25252525  1.00000000  0.00000000       0.002
   0.25757576  1.00000000  0.00000000       0.002
   0.26262626  1.00000000  0.00000000       0.002
   0.26767677  1.00000000  0.00000000       0.002
   0.27272727  1.00000000  0.00000000       0.002
   0.27777778  1.00000000  0.00000000       0.002
   0.28282828  1.00000000  0.00000000       0.002
   0.28787879  1.00000000  0.00000000       0.002
   0.29292929  1.00000000  0.00000000       0.002
   0.29797980  1.00000000  0.00000000       0.002
   0.30303030  1.00000000  0.00000000       0.002
   0.30808081  1.00000000  0.00000000       0.002
   0.31313131  1.00000000  0.00000000       0.002
   0.31818182  1.00000000 -0.00000000       0.002
   0.32323232  1.00000000  0.00000000       0.002
   0.32828283  1.00000000  0.00000000       0.002
   0.33333333  1.00000000 -0.00000000       0.002
   0.33838384  1.00000000  0.00000000       0.002
   0.34343434  1.00000000  0.00000000       0.002
   0.34848485  1.00000000 -0.00000000       0.002
   0.35353535  1.00000000  0.00000000       0.002
   0.35858586  1.00000000  0.00000000       0.002
   0.36363636  1.00000000 -0.00000000       0.002
   0.36868687  1.00000000  0.00000000       0.002
   0.37373737  1.00000000  0.00000000       0.002
   0.37878788  1.00000000  0.00000000       0.002
   0.38383838  1.00000000  0.00000000       0.002
   0.38888889  1.00000000  0.00000000       0.002
   0.39393939  1.00000000  0.00000000       0.002
   0.39898990  1.00000000  0.00000000       0.002
   0.40404040  1.00000000  0.00000000       0.002
   0.40909091  1.00000000  0.00000000       0.002
   0.41414141  1.00000000  0.00000000       0.002
   0.41919192  1.00000000  0.00000000       0.002
   0.42424242  1.00000000  0.00000000       0.002
   0.42929293  1.00000000  0.00000000       0.002
   0.43434343  1.00000000  0.00000000       0.002
   0.43939394  1.00000000  0.00000000       0.002
   0.44444444  1.00000000  0.00000000       0.002
   0.44949495  1.00000000 -0.00000000       0.002
   0.45454545  1.00000000  0.00000000       0.002
   0.45959596  1.00000000  0.00000000       0.002
   0.46464646  1.00000000 -0.00000000       0.002
   0.46969697  1.00000000  0.00000000       0.002
   0.47474747  1.00000000 -0.00000000       0.002
   0.47979798  1.00000000 -0.00000000       0.002
   0.48484848  1.00000000  0.00000000       0.002
   0.48989899  1.00000000 -0.00000000       0.002
   0.49494949  1.00000000 -0.00000000       0.002
   0.50000000  1.00000000  0.00000000       0.002
   0.50000000  1.00000000  0.00000000       0.002
   0.50000000  0.99494949  0.00505051       0.002
   0.50000000  0.98989899  0.01010101       0.002
   0.50000000  0.98484848  0.01515152       0.002
   0.50000000  0.97979798  0.02020202       0.002
   0.50000000  0.97474747  0.02525253       0.002
   0.50000000  0.96969697  0.03030303       0.002
   0.50000000  0.96464646  0.03535354       0.002
   0.50000000  0.95959596  0.04040404       0.002
   0.50000000  0.95454545  0.04545455       0.002
   0.50000000  0.94949495  0.05050505       0.002
   0.50000000  0.94444444  0.05555556       0.002
   0.50000000  0.93939394  0.06060606       0.002
   0.50000000  0.93434343  0.06565657       0.002
   0.50000000  0.92929293  0.07070707       0.002
   0.50000000  0.92424242  0.07575758       0.002
   0.50000000  0.91919192  0.08080808       0.002
   0.50000000  0.91414141  0.08585859       0.002
   0.50000000  0.90909091  0.09090909       0.002
   0.50000000  0.90404040  0.09595960       0.002
   0.50000000  0.89898990  0.10101010       0.002
   0.50000000  0.89393939  0.10606061       0.002
   0.50000000  0.88888889  0.11111111       0.002
   0.50000000  0.88383838  0.11616162       0.002
   0.50000000  0.87878788  0.12121212       0.002
   0.50000000  0.87373737  0.12626263       0.002
   0.50000000  0.86868687  0.13131313       0.002
   0.50000000  0.86363636  0.13636364       0.002
   0.50000000  0.85858586  0.14141414       0.002
   0.50000000  0.85353535  0.14646465       0.002
   0.50000000  0.84848485  0.15151515       0.002
   0.50000000  0.84343434  0.15656566       0.002
   0.50000000  0.83838384  0.16161616       0.002
   0.50000000  0.83333333  0.16666667       0.002
   0.50000000  0.82828283  0.17171717       0.002
   0.50000000  0.82323232  0.17676768       0.002
   0.50000000  0.81818182  0.18181818       0.002
   0.50000000  0.81313131  0.18686869       0.002
   0.50000000  0.80808081  0.19191919       0.002
   0.50000000  0.80303030  0.19696970       0.002
   0.50000000  0.79797980  0.20202020       0.002
   0.50000000  0.79292929  0.20707071       0.002
   0.50000000  0.78787879  0.21212121       0.002
   0.50000000  0.78282828  0.21717172       0.002
   0.50000000  0.77777778  0.22222222       0.002
   0.50000000  0.77272727  0.22727273       0.002
   0.50000000  0.76767677  0.23232323       0.002
   0.50000000  0.76262626  0.23737374       0.002
   0.50000000  0.75757576  0.24242424       0.002
   0.50000000  0.75252525  0.24747475       0.002
   0.50000000  0.74747475  0.25252525       0.002
   0.50000000  0.74242424  0.25757576       0.002
   0.50000000  0.73737374  0.26262626       0.002
   0.50000000  0.73232323  0.26767677       0.002
   0.50000000  0.72727273  0.27272727       0.002
   0.50000000  0.72222222  0.27777778       0.002
   0.50000000  0.71717172  0.28282828       0.002
   0.50000000  0.71212121  0.28787879       0.002
   0.50000000  0.70707071  0.29292929       0.002
   0.50000000  0.70202020  0.29797980       0.002
   0.50000000  0.69696970  0.30303030       0.002
   0.50000000  0.69191919  0.30808081       0.002
   0.50000000  0.68686869  0.31313131       0.002
   0.50000000  0.68181818  0.31818182       0.002
   0.50000000  0.67676768  0.32323232       0.002
   0.50000000  0.67171717  0.32828283       0.002
   0.50000000  0.66666667  0.33333333       0.002
   0.50000000  0.66161616  0.33838384       0.002
   0.50000000  0.65656566  0.34343434       0.002
   0.50000000  0.65151515  0.34848485       0.002
   0.50000000  0.64646465  0.35353535       0.002
   0.50000000  0.64141414  0.35858586       0.002
   0.50000000  0.63636364  0.36363636       0.002
   0.50000000  0.63131313  0.36868687       0.002
   0.50000000  0.62626263  0.37373737       0.002
   0.50000000  0.62121212  0.37878788       0.002
   0.50000000  0.61616162  0.38383838       0.002
   0.50000000  0.61111111  0.38888889       0.002
   0.50000000  0.60606061  0.39393939       0.002
   0.50000000  0.60101010  0.39898990       0.002
   0.50000000  0.59595960  0.40404040       0.002
   0.50000000  0.59090909  0.40909091       0.002
   0.50000000  0.58585859  0.41414141       0.002
   0.50000000  0.58080808  0.41919192       0.002
   0.50000000  0.57575758  0.42424242       0.002
   0.50000000  0.57070707  0.42929293       0.002
   0.50000000  0.56565657  0.43434343       0.002
   0.50000000  0.56060606  0.43939394       0.002
   0.50000000  0.55555556  0.44444444       0.002
   0.50000000  0.55050505  0.44949495       0.002
   0.50000000  0.54545455  0.45454545       0.002
   0.50000000  0.54040404  0.45959596       0.002
   0.50000000  0.53535354  0.46464646       0.002
   0.50000000  0.53030303  0.46969697       0.002
   0.50000000  0.52525253  0.47474747       0.002
   0.50000000  0.52020202  0.47979798       0.002
   0.50000000  0.51515152  0.48484848       0.002
   0.50000000  0.51010101  0.48989899       0.002
   0.50000000  0.50505051  0.49494949       0.002
   0.50000000  0.50000000  0.50000000       0.002
   0.50000000  0.50000000  0.50000000       0.002
   0.49494949  0.49494949  0.49494949       0.002
   0.48989899  0.48989899  0.48989899       0.002
   0.48484848  0.48484848  0.48484848       0.002
   0.47979798  0.47979798  0.47979798       0.002
   0.47474747  0.47474747  0.47474747       0.002
   0.46969697  0.46969697  0.46969697       0.002
   0.46464646  0.46464646  0.46464646       0.002
   0.45959596  0.45959596  0.45959596       0.002
   0.45454545  0.45454545  0.45454545       0.002
   0.44949495  0.44949495  0.44949495       0.002
   0.44444444  0.44444444  0.44444444       0.002
   0.43939394  0.43939394  0.43939394       0.002
   0.43434343  0.43434343  0.43434343       0.002
   0.42929293  0.42929293  0.42929293       0.002
   0.42424242  0.42424242  0.42424242       0.002
   0.41919192  0.41919192  0.41919192       0.002
   0.41414141  0.41414141  0.41414141       0.002
   0.40909091  0.40909091  0.40909091       0.002
   0.40404040  0.40404040  0.40404040       0.002
   0.39898990  0.39898990  0.39898990       0.002
   0.39393939  0.39393939  0.39393939       0.002
   0.38888889  0.38888889  0.38888889       0.002
   0.38383838  0.38383838  0.38383838       0.002
   0.37878788  0.37878788  0.37878788       0.002
   0.37373737  0.37373737  0.37373737       0.002
   0.36868687  0.36868687  0.36868687       0.002
   0.36363636  0.36363636  0.36363636       0.002
   0.35858586  0.35858586  0.35858586       0.002
   0.35353535  0.35353535  0.35353535       0.002
   0.34848485  0.34848485  0.34848485       0.002
   0.34343434  0.34343434  0.34343434       0.002
   0.33838384  0.33838384  0.33838384       0.002
   0.33333333  0.33333333  0.33333333       0.002
   0.32828283  0.32828283  0.32828283       0.002
   0.32323232  0.32323232  0.32323232       0.002
   0.31818182  0.31818182  0.31818182       0.002
   0.31313131  0.31313131  0.31313131       0.002
   0.30808081  0.30808081  0.30808081       0.002
   0.30303030  0.30303030  0.30303030       0.002
   0.29797980  0.29797980  0.29797980       0.002
   0.29292929  0.29292929  0.29292929       0.002
   0.28787879  0.28787879  0.28787879       0.002
   0.28282828  0.28282828  0.28282828       0.002
   0.27777778  0.27777778  0.27777778       0.002
   0.27272727  0.27272727  0.27272727       0.002
   0.26767677  0.26767677  0.26767677       0.002
   0.26262626  0.26262626  0.26262626       0.002
   0.25757576  0.25757576  0.25757576       0.002
   0.25252525  0.25252525  0.25252525       0.002
   0.24747475  0.24747475  0.24747475       0.002
   0.24242424  0.24242424  0.24242424       0.002
   0.23737374  0.23737374  0.23737374       0.002
   0.23232323  0.23232323  0.23232323       0.002
   0.22727273  0.22727273  0.22727273       0.002
   0.22222222  0.22222222  0.22222222       0.002
   0.21717172  0.21717172  0.21717172       0.002
   0.21212121  0.21212121  0.21212121       0.002
   0.20707071  0.20707071  0.20707071       0.002
   0.20202020  0.20202020  0.20202020       0.002
   0.19696970  0.19696970  0.19696970       0.002
   0.19191919  0.19191919  0.19191919       0.002
   0.18686869  0.18686869  0.18686869       0.002
   0.18181818  0.18181818  0.18181818       0.002
   0.17676768  0.17676768  0.17676768       0.002
   0.17171717  0.17171717  0.17171717       0.002
   0.16666667  0.16666667  0.16666667       0.002
   0.16161616  0.16161616  0.16161616       0.002
   0.15656566  0.15656566  0.15656566       0.002
   0.15151515  0.15151515  0.15151515       0.002
   0.14646465  0.14646465  0.14646465       0.002
   0.14141414  0.14141414  0.14141414       0.002
   0.13636364  0.13636364  0.13636364       0.002
   0.13131313  0.13131313  0.13131313       0.002
   0.12626263  0.12626263  0.12626263       0.002
   0.12121212  0.12121212  0.12121212       0.002
   0.11616162  0.11616162  0.11616162       0.002
   0.11111111  0.11111111  0.11111111       0.002
   0.10606061  0.10606061  0.10606061       0.002
   0.10101010  0.10101010  0.10101010       0.002
   0.09595960  0.09595960  0.09595960       0.002
   0.09090909  0.09090909  0.09090909       0.002
   0.08585859  0.08585859  0.08585859       0.002
   0.08080808  0.08080808  0.08080808       0.002
   0.07575758  0.07575758  0.07575758       0.002
   0.07070707  0.07070707  0.07070707       0.002
   0.06565657  0.06565657  0.06565657       0.002
   0.06060606  0.06060606  0.06060606       0.002
   0.05555556  0.05555556  0.05555556       0.002
   0.05050505  0.05050505  0.05050505       0.002
   0.04545455  0.04545455  0.04545455       0.002
   0.04040404  0.04040404  0.04040404       0.002
   0.03535354  0.03535354  0.03535354       0.002
   0.03030303  0.03030303  0.03030303       0.002
   0.02525253  0.02525253  0.02525253       0.002
   0.02020202  0.02020202  0.02020202       0.002
   0.01515152  0.01515152  0.01515152       0.002
   0.01010101  0.01010101  0.01010101       0.002
   0.00505051  0.00505051  0.00505051       0.002
   0.00000000  0.00000000  0.00000000       0.002
   0.00000000  0.00000000  0.00000000       0.002
   0.00757576  0.00757576  0.00000000       0.002
   0.01515152  0.01515152  0.00000000       0.002
   0.02272727  0.02272727  0.00000000       0.002
   0.03030303  0.03030303  0.00000000       0.002
   0.03787879  0.03787879  0.00000000       0.002
   0.04545455  0.04545455  0.00000000       0.002
   0.05303030  0.05303030  0.00000000       0.002
   0.06060606  0.06060606  0.00000000       0.002
   0.06818182  0.06818182  0.00000000       0.002
   0.07575758  0.07575758  0.00000000       0.002
   0.08333333  0.08333333  0.00000000       0.002
   0.09090909  0.09090909  0.00000000       0.002
   0.09848485  0.09848485  0.00000000       0.002
   0.10606061  0.10606061  0.00000000       0.002
   0.11363636  0.11363636  0.00000000       0.002
   0.12121212  0.12121212  0.00000000       0.002
   0.12878788  0.12878788  0.00000000       0.002
   0.13636364  0.13636364  0.00000000       0.002
   0.14393939  0.14393939  0.00000000       0.002
   0.15151515  0.15151515  0.00000000       0.002
   0.15909091  0.15909091  0.00000000       0.002
   0.16666667  0.16666667  0.00000000       0.002
   0.17424242  0.17424242  0.00000000       0.002
   0.18181818  0.18181818  0.00000000       0.002
   0.18939394  0.18939394  0.00000000       0.002
   0.19696970  0.19696970  0.00000000       0.002
   0.20454545  0.20454545  0.00000000       0.002
   0.21212121  0.21212121  0.00000000       0.002
   0.21969697  0.21969697  0.00000000       0.002
   0.22727273  0.22727273  0.00000000       0.002
   0.23484848  0.23484848  0.00000000       0.002
   0.24242424  0.24242424  0.00000000       0.002
   0.25000000  0.25000000  0.00000000       0.002
   0.25757576  0.25757576  0.00000000       0.002
   0.26515152  0.26515152  0.00000000       0.002
   0.27272727  0.27272727  0.00000000       0.002
   0.28030303  0.28030303  0.00000000       0.002
   0.28787879  0.28787879  0.00000000       0.002
   0.29545455  0.29545455  0.00000000       0.002
   0.30303030  0.30303030  0.00000000       0.002
   0.31060606  0.31060606  0.00000000       0.002
   0.31818182  0.31818182  0.00000000       0.002
   0.32575758  0.32575758  0.00000000       0.002
   0.33333333  0.33333333  0.00000000       0.002
   0.34090909  0.34090909  0.00000000       0.002
   0.34848485  0.34848485  0.00000000       0.002
   0.35606061  0.35606061  0.00000000       0.002
   0.36363636  0.36363636  0.00000000       0.002
   0.37121212  0.37121212  0.00000000       0.002
   0.37878788  0.37878788  0.00000000       0.002
   0.38636364  0.38636364  0.00000000       0.002
   0.39393939  0.39393939  0.00000000       0.002
   0.40151515  0.40151515  0.00000000       0.002
   0.40909091  0.40909091  0.00000000       0.002
   0.41666667  0.41666667  0.00000000       0.002
   0.42424242  0.42424242  0.00000000       0.002
   0.43181818  0.43181818  0.00000000       0.002
   0.43939394  0.43939394  0.00000000       0.002
   0.44696970  0.44696970  0.00000000       0.002
   0.45454545  0.45454545  0.00000000       0.002
   0.46212121  0.46212121  0.00000000       0.002
   0.46969697  0.46969697  0.00000000       0.002
   0.47727273  0.47727273  0.00000000       0.002
   0.48484848  0.48484848  0.00000000       0.002
   0.49242424  0.49242424  0.00000000       0.002
   0.50000000  0.50000000  0.00000000       0.002
   0.50757576  0.50757576  0.00000000       0.002
   0.51515152  0.51515152  0.00000000       0.002
   0.52272727  0.52272727  0.00000000       0.002
   0.53030303  0.53030303  0.00000000       0.002
   0.53787879  0.53787879  0.00000000       0.002
   0.54545455  0.54545455  0.00000000       0.002
   0.55303030  0.55303030  0.00000000       0.002
   0.56060606  0.56060606  0.00000000       0.002
   0.56818182  0.56818182  0.00000000       0.002
   0.57575758  0.57575758  0.00000000       0.002
   0.58333333  0.58333333  0.00000000       0.002
   0.59090909  0.59090909  0.00000000       0.002
   0.59848485  0.59848485  0.00000000       0.002
   0.60606061  0.60606061  0.00000000       0.002
   0.61363636  0.61363636  0.00000000       0.002
   0.62121212  0.62121212  0.00000000       0.002
   0.62878788  0.62878788  0.00000000       0.002
   0.63636364  0.63636364  0.00000000       0.002
   0.64393939  0.64393939  0.00000000       0.002
   0.65151515  0.65151515  0.00000000       0.002
   0.65909091  0.65909091  0.00000000       0.002
   0.66666667  0.66666667  0.00000000       0.002
   0.67424242  0.67424242  0.00000000       0.002
   0.68181818  0.68181818  0.00000000       0.002
   0.68939394  0.68939394  0.00000000       0.002
   0.69696970  0.69696970  0.00000000       0.002
   0.70454545  0.70454545  0.00000000       0.002
   0.71212121  0.71212121  0.00000000       0.002
   0.71969697  0.71969697  0.00000000       0.002
   0.72727273  0.72727273  0.00000000       0.002
   0.73484848  0.73484848  0.00000000       0.002
   0.74242424  0.74242424  0.00000000       0.002
   0.75000000  0.75000000  0.00000000       0.002
   0.75000000  0.75000000  0.00000000       0.002
   0.74242424  0.75252525 -0.00000000       0.002
   0.73484848  0.75505051  0.00000000       0.002
   0.72727273  0.75757576  0.00000000       0.002
   0.71969697  0.76010101 -0.00000000       0.002
   0.71212121  0.76262626  0.00000000       0.002
   0.70454545  0.76515152  0.00000000       0.002
   0.69696970  0.76767677  0.00000000       0.002
   0.68939394  0.77020202  0.00000000       0.002
   0.68181818  0.77272727  0.00000000       0.002
   0.67424242  0.77525253  0.00000000       0.002
   0.66666667  0.77777778  0.00000000       0.002
   0.65909091  0.78030303  0.00000000       0.002
   0.65151515  0.78282828  0.00000000       0.002
   0.64393939  0.78535354  0.00000000       0.002
   0.63636364  0.78787879  0.00000000       0.002
   0.62878788  0.79040404  0.00000000       0.002
   0.62121212  0.79292929  0.00000000       0.002
   0.61363636  0.79545455  0.00000000       0.002
   0.60606061  0.79797980  0.00000000       0.002
   0.59848485  0.80050505  0.00000000       0.002
   0.59090909  0.80303030  0.00000000       0.002
   0.58333333  0.80555556  0.00000000       0.002
   0.57575758  0.80808081  0.00000000       0.002
   0.56818182  0.81060606 -0.00000000       0.002
   0.56060606  0.81313131  0.00000000       0.002
   0.55303030  0.81565657  0.00000000       0.002
   0.54545455  0.81818182  0.00000000       0.002
   0.53787879  0.82070707  0.00000000       0.002
   0.53030303  0.82323232  0.00000000       0.002
   0.52272727  0.82575758  0.00000000       0.002
   0.51515152  0.82828283  0.00000000       0.002
   0.50757576  0.83080808  0.00000000       0.002
   0.50000000  0.83333333  0.00000000       0.002
   0.49242424  0.83585859  0.00000000       0.002
   0.48484848  0.83838384  0.00000000       0.002
   0.47727273  0.84090909  0.00000000       0.002
   0.46969697  0.84343434 -0.00000000       0.002
   0.46212121  0.84595960  0.00000000       0.002
   0.45454545  0.84848485  0.00000000       0.002
   0.44696970  0.85101010 -0.00000000       0.002
   0.43939394  0.85353535  0.00000000       0.002
   0.43181818  0.85606061  0.00000000       0.002
   0.42424242  0.85858586 -0.00000000       0.002
   0.41666667  0.86111111  0.00000000       0.002
   0.40909091  0.86363636  0.00000000       0.002
   0.40151515  0.86616162 -0.00000000       0.002
   0.39393939  0.86868687  0.00000000       0.002
   0.38636364  0.87121212  0.00000000       0.002
   0.37878788  0.87373737 -0.00000000       0.002
   0.37121212  0.87626263  0.00000000       0.002
   0.36363636  0.87878788  0.00000000       0.002
   0.35606061  0.88131313 -0.00000000       0.002
   0.34848485  0.88383838  0.00000000       0.002
   0.34090909  0.88636364  0.00000000       0.002
   0.33333333  0.88888889 -0.00000000       0.002
   0.32575758  0.89141414  0.00000000       0.002
   0.31818182  0.89393939  0.00000000       0.002
   0.31060606  0.89646465 -0.00000000       0.002
   0.30303030  0.89898990  0.00000000       0.002
   0.29545455  0.90151515 -0.00000000       0.002
   0.28787879  0.90404040  0.00000000       0.002
   0.28030303  0.90656566  0.00000000       0.002
   0.27272727  0.90909091  0.00000000       0.002
   0.26515152  0.91161616  0.00000000       0.002
   0.25757576  0.91414141  0.00000000       0.002
   0.25000000  0.91666667  0.00000000       0.002
   0.24242424  0.91919192  0.00000000       0.002
   0.23484848  0.92171717 -0.00000000       0.002
   0.22727273  0.92424242  0.00000000       0.002
   0.21969697  0.92676768  0.00000000       0.002
   0.21212121  0.92929293 -0.00000000       0.002
   0.20454545  0.93181818  0.00000000       0.002
   0.19696970  0.93434343 -0.00000000       0.002
   0.18939394  0.93686869 -0.00000000       0.002
   0.18181818  0.93939394  0.00000000       0.002
   0.17424242  0.94191919 -0.00000000       0.002
   0.16666667  0.94444444 -0.00000000       0.002
   0.15909091  0.94696970  0.00000000       0.002
   0.15151515  0.94949495  0.00000000       0.002
   0.14393939  0.95202020 -0.00000000       0.002
   0.13636364  0.95454545  0.00000000       0.002
   0.12878788  0.95707071  0.00000000       0.002
   0.12121212  0.95959596 -0.00000000       0.002
   0.11363636  0.96212121  0.00000000       0.002
   0.10606061  0.96464646  0.00000000       0.002
   0.09848485  0.96717172 -0.00000000       0.002
   0.09090909  0.96969697  0.00000000       0.002
   0.08333333  0.97222222 -0.00000000       0.002
   0.07575758  0.97474747  0.00000000       0.002
   0.06818182  0.97727273  0.00000000       0.002
   0.06060606  0.97979798 -0.00000000       0.002
   0.05303030  0.98232323  0.00000000       0.002
   0.04545455  0.98484848  0.00000000       0.002
   0.03787879  0.98737374  0.00000000       0.002
   0.03030303  0.98989899  0.00000000       0.002
   0.02272727  0.99242424  0.00000000       0.002
   0.01515152  0.99494949  0.00000000       0.002
   0.00757576  0.99747475  0.00000000       0.002
   0.00000000  1.00000000  0.00000000       0.002
 
 k-points in reciprocal lattice and weights: kpoints for bandstructure L-G-X-U K-G   
   0.00000000  0.00000000  0.00000000       0.002
   0.00505051  0.00000000  0.00505051       0.002
   0.01010101  0.00000000  0.01010101       0.002
   0.01515152  0.00000000  0.01515152       0.002
   0.02020202  0.00000000  0.02020202       0.002
   0.02525253  0.00000000  0.02525253       0.002
   0.03030303  0.00000000  0.03030303       0.002
   0.03535354  0.00000000  0.03535354       0.002
   0.04040404  0.00000000  0.04040404       0.002
   0.04545455  0.00000000  0.04545455       0.002
   0.05050505  0.00000000  0.05050505       0.002
   0.05555556  0.00000000  0.05555556       0.002
   0.06060606  0.00000000  0.06060606       0.002
   0.06565657  0.00000000  0.06565657       0.002
   0.07070707  0.00000000  0.07070707       0.002
   0.07575758  0.00000000  0.07575758       0.002
   0.08080808  0.00000000  0.08080808       0.002
   0.08585859  0.00000000  0.08585859       0.002
   0.09090909  0.00000000  0.09090909       0.002
   0.09595960  0.00000000  0.09595960       0.002
   0.10101010  0.00000000  0.10101010       0.002
   0.10606061  0.00000000  0.10606061       0.002
   0.11111111  0.00000000  0.11111111       0.002
   0.11616162  0.00000000  0.11616162       0.002
   0.12121212  0.00000000  0.12121212       0.002
   0.12626263  0.00000000  0.12626263       0.002
   0.13131313  0.00000000  0.13131313       0.002
   0.13636364  0.00000000  0.13636364       0.002
   0.14141414  0.00000000  0.14141414       0.002
   0.14646465  0.00000000  0.14646465       0.002
   0.15151515  0.00000000  0.15151515       0.002
   0.15656566  0.00000000  0.15656566       0.002
   0.16161616  0.00000000  0.16161616       0.002
   0.16666667  0.00000000  0.16666667       0.002
   0.17171717  0.00000000  0.17171717       0.002
   0.17676768  0.00000000  0.17676768       0.002
   0.18181818  0.00000000  0.18181818       0.002
   0.18686869  0.00000000  0.18686869       0.002
   0.19191919  0.00000000  0.19191919       0.002
   0.19696970  0.00000000  0.19696970       0.002
   0.20202020  0.00000000  0.20202020       0.002
   0.20707071  0.00000000  0.20707071       0.002
   0.21212121  0.00000000  0.21212121       0.002
   0.21717172  0.00000000  0.21717172       0.002
   0.22222222  0.00000000  0.22222222       0.002
   0.22727273  0.00000000  0.22727273       0.002
   0.23232323  0.00000000  0.23232323       0.002
   0.23737374  0.00000000  0.23737374       0.002
   0.24242424  0.00000000  0.24242424       0.002
   0.24747475  0.00000000  0.24747475       0.002
   0.25252525  0.00000000  0.25252525       0.002
   0.25757576  0.00000000  0.25757576       0.002
   0.26262626  0.00000000  0.26262626       0.002
   0.26767677  0.00000000  0.26767677       0.002
   0.27272727  0.00000000  0.27272727       0.002
   0.27777778  0.00000000  0.27777778       0.002
   0.28282828  0.00000000  0.28282828       0.002
   0.28787879  0.00000000  0.28787879       0.002
   0.29292929  0.00000000  0.29292929       0.002
   0.29797980  0.00000000  0.29797980       0.002
   0.30303030  0.00000000  0.30303030       0.002
   0.30808081  0.00000000  0.30808081       0.002
   0.31313131  0.00000000  0.31313131       0.002
   0.31818182  0.00000000  0.31818182       0.002
   0.32323232  0.00000000  0.32323232       0.002
   0.32828283  0.00000000  0.32828283       0.002
   0.33333333  0.00000000  0.33333333       0.002
   0.33838384  0.00000000  0.33838384       0.002
   0.34343434  0.00000000  0.34343434       0.002
   0.34848485  0.00000000  0.34848485       0.002
   0.35353535  0.00000000  0.35353535       0.002
   0.35858586  0.00000000  0.35858586       0.002
   0.36363636  0.00000000  0.36363636       0.002
   0.36868687  0.00000000  0.36868687       0.002
   0.37373737  0.00000000  0.37373737       0.002
   0.37878788  0.00000000  0.37878788       0.002
   0.38383838  0.00000000  0.38383838       0.002
   0.38888889  0.00000000  0.38888889       0.002
   0.39393939  0.00000000  0.39393939       0.002
   0.39898990  0.00000000  0.39898990       0.002
   0.40404040  0.00000000  0.40404040       0.002
   0.40909091  0.00000000  0.40909091       0.002
   0.41414141  0.00000000  0.41414141       0.002
   0.41919192  0.00000000  0.41919192       0.002
   0.42424242  0.00000000  0.42424242       0.002
   0.42929293  0.00000000  0.42929293       0.002
   0.43434343  0.00000000  0.43434343       0.002
   0.43939394  0.00000000  0.43939394       0.002
   0.44444444  0.00000000  0.44444444       0.002
   0.44949495  0.00000000  0.44949495       0.002
   0.45454545  0.00000000  0.45454545       0.002
   0.45959596  0.00000000  0.45959596       0.002
   0.46464646  0.00000000  0.46464646       0.002
   0.46969697  0.00000000  0.46969697       0.002
   0.47474747  0.00000000  0.47474747       0.002
   0.47979798  0.00000000  0.47979798       0.002
   0.48484848  0.00000000  0.48484848       0.002
   0.48989899  0.00000000  0.48989899       0.002
   0.49494949  0.00000000  0.49494949       0.002
   0.50000000  0.00000000  0.50000000       0.002
   0.50000000  0.00000000  0.50000000       0.002
   0.50000000  0.00252525  0.50252525       0.002
   0.50000000  0.00505051  0.50505051       0.002
   0.50000000  0.00757576  0.50757576       0.002
   0.50000000  0.01010101  0.51010101       0.002
   0.50000000  0.01262626  0.51262626       0.002
   0.50000000  0.01515152  0.51515152       0.002
   0.50000000  0.01767677  0.51767677       0.002
   0.50000000  0.02020202  0.52020202       0.002
   0.50000000  0.02272727  0.52272727       0.002
   0.50000000  0.02525253  0.52525253       0.002
   0.50000000  0.02777778  0.52777778       0.002
   0.50000000  0.03030303  0.53030303       0.002
   0.50000000  0.03282828  0.53282828       0.002
   0.50000000  0.03535354  0.53535354       0.002
   0.50000000  0.03787879  0.53787879       0.002
   0.50000000  0.04040404  0.54040404       0.002
   0.50000000  0.04292929  0.54292929       0.002
   0.50000000  0.04545455  0.54545455       0.002
   0.50000000  0.04797980  0.54797980       0.002
   0.50000000  0.05050505  0.55050505       0.002
   0.50000000  0.05303030  0.55303030       0.002
   0.50000000  0.05555556  0.55555556       0.002
   0.50000000  0.05808081  0.55808081       0.002
   0.50000000  0.06060606  0.56060606       0.002
   0.50000000  0.06313131  0.56313131       0.002
   0.50000000  0.06565657  0.56565657       0.002
   0.50000000  0.06818182  0.56818182       0.002
   0.50000000  0.07070707  0.57070707       0.002
   0.50000000  0.07323232  0.57323232       0.002
   0.50000000  0.07575758  0.57575758       0.002
   0.50000000  0.07828283  0.57828283       0.002
   0.50000000  0.08080808  0.58080808       0.002
   0.50000000  0.08333333  0.58333333       0.002
   0.50000000  0.08585859  0.58585859       0.002
   0.50000000  0.08838384  0.58838384       0.002
   0.50000000  0.09090909  0.59090909       0.002
   0.50000000  0.09343434  0.59343434       0.002
   0.50000000  0.09595960  0.59595960       0.002
   0.50000000  0.09848485  0.59848485       0.002
   0.50000000  0.10101010  0.60101010       0.002
   0.50000000  0.10353535  0.60353535       0.002
   0.50000000  0.10606061  0.60606061       0.002
   0.50000000  0.10858586  0.60858586       0.002
   0.50000000  0.11111111  0.61111111       0.002
   0.50000000  0.11363636  0.61363636       0.002
   0.50000000  0.11616162  0.61616162       0.002
   0.50000000  0.11868687  0.61868687       0.002
   0.50000000  0.12121212  0.62121212       0.002
   0.50000000  0.12373737  0.62373737       0.002
   0.50000000  0.12626263  0.62626263       0.002
   0.50000000  0.12878788  0.62878788       0.002
   0.50000000  0.13131313  0.63131313       0.002
   0.50000000  0.13383838  0.63383838       0.002
   0.50000000  0.13636364  0.63636364       0.002
   0.50000000  0.13888889  0.63888889       0.002
   0.50000000  0.14141414  0.64141414       0.002
   0.50000000  0.14393939  0.64393939       0.002
   0.50000000  0.14646465  0.64646465       0.002
   0.50000000  0.14898990  0.64898990       0.002
   0.50000000  0.15151515  0.65151515       0.002
   0.50000000  0.15404040  0.65404040       0.002
   0.50000000  0.15656566  0.65656566       0.002
   0.50000000  0.15909091  0.65909091       0.002
   0.50000000  0.16161616  0.66161616       0.002
   0.50000000  0.16414141  0.66414141       0.002
   0.50000000  0.16666667  0.66666667       0.002
   0.50000000  0.16919192  0.66919192       0.002
   0.50000000  0.17171717  0.67171717       0.002
   0.50000000  0.17424242  0.67424242       0.002
   0.50000000  0.17676768  0.67676768       0.002
   0.50000000  0.17929293  0.67929293       0.002
   0.50000000  0.18181818  0.68181818       0.002
   0.50000000  0.18434343  0.68434343       0.002
   0.50000000  0.18686869  0.68686869       0.002
   0.50000000  0.18939394  0.68939394       0.002
   0.50000000  0.19191919  0.69191919       0.002
   0.50000000  0.19444444  0.69444444       0.002
   0.50000000  0.19696970  0.69696970       0.002
   0.50000000  0.19949495  0.69949495       0.002
   0.50000000  0.20202020  0.70202020       0.002
   0.50000000  0.20454545  0.70454545       0.002
   0.50000000  0.20707071  0.70707071       0.002
   0.50000000  0.20959596  0.70959596       0.002
   0.50000000  0.21212121  0.71212121       0.002
   0.50000000  0.21464646  0.71464646       0.002
   0.50000000  0.21717172  0.71717172       0.002
   0.50000000  0.21969697  0.71969697       0.002
   0.50000000  0.22222222  0.72222222       0.002
   0.50000000  0.22474747  0.72474747       0.002
   0.50000000  0.22727273  0.72727273       0.002
   0.50000000  0.22979798  0.72979798       0.002
   0.50000000  0.23232323  0.73232323       0.002
   0.50000000  0.23484848  0.73484848       0.002
   0.50000000  0.23737374  0.73737374       0.002
   0.50000000  0.23989899  0.73989899       0.002
   0.50000000  0.24242424  0.74242424       0.002
   0.50000000  0.24494949  0.74494949       0.002
   0.50000000  0.24747475  0.74747475       0.002
   0.50000000  0.25000000  0.75000000       0.002
   0.50000000  0.25000000  0.75000000       0.002
   0.50000000  0.25252525  0.74747475       0.002
   0.50000000  0.25505051  0.74494949       0.002
   0.50000000  0.25757576  0.74242424       0.002
   0.50000000  0.26010101  0.73989899       0.002
   0.50000000  0.26262626  0.73737374       0.002
   0.50000000  0.26515152  0.73484848       0.002
   0.50000000  0.26767677  0.73232323       0.002
   0.50000000  0.27020202  0.72979798       0.002
   0.50000000  0.27272727  0.72727273       0.002
   0.50000000  0.27525253  0.72474747       0.002
   0.50000000  0.27777778  0.72222222       0.002
   0.50000000  0.28030303  0.71969697       0.002
   0.50000000  0.28282828  0.71717172       0.002
   0.50000000  0.28535354  0.71464646       0.002
   0.50000000  0.28787879  0.71212121       0.002
   0.50000000  0.29040404  0.70959596       0.002
   0.50000000  0.29292929  0.70707071       0.002
   0.50000000  0.29545455  0.70454545       0.002
   0.50000000  0.29797980  0.70202020       0.002
   0.50000000  0.30050505  0.69949495       0.002
   0.50000000  0.30303030  0.69696970       0.002
   0.50000000  0.30555556  0.69444444       0.002
   0.50000000  0.30808081  0.69191919       0.002
   0.50000000  0.31060606  0.68939394       0.002
   0.50000000  0.31313131  0.68686869       0.002
   0.50000000  0.31565657  0.68434343       0.002
   0.50000000  0.31818182  0.68181818       0.002
   0.50000000  0.32070707  0.67929293       0.002
   0.50000000  0.32323232  0.67676768       0.002
   0.50000000  0.32575758  0.67424242       0.002
   0.50000000  0.32828283  0.67171717       0.002
   0.50000000  0.33080808  0.66919192       0.002
   0.50000000  0.33333333  0.66666667       0.002
   0.50000000  0.33585859  0.66414141       0.002
   0.50000000  0.33838384  0.66161616       0.002
   0.50000000  0.34090909  0.65909091       0.002
   0.50000000  0.34343434  0.65656566       0.002
   0.50000000  0.34595960  0.65404040       0.002
   0.50000000  0.34848485  0.65151515       0.002
   0.50000000  0.35101010  0.64898990       0.002
   0.50000000  0.35353535  0.64646465       0.002
   0.50000000  0.35606061  0.64393939       0.002
   0.50000000  0.35858586  0.64141414       0.002
   0.50000000  0.36111111  0.63888889       0.002
   0.50000000  0.36363636  0.63636364       0.002
   0.50000000  0.36616162  0.63383838       0.002
   0.50000000  0.36868687  0.63131313       0.002
   0.50000000  0.37121212  0.62878788       0.002
   0.50000000  0.37373737  0.62626263       0.002
   0.50000000  0.37626263  0.62373737       0.002
   0.50000000  0.37878788  0.62121212       0.002
   0.50000000  0.38131313  0.61868687       0.002
   0.50000000  0.38383838  0.61616162       0.002
   0.50000000  0.38636364  0.61363636       0.002
   0.50000000  0.38888889  0.61111111       0.002
   0.50000000  0.39141414  0.60858586       0.002
   0.50000000  0.39393939  0.60606061       0.002
   0.50000000  0.39646465  0.60353535       0.002
   0.50000000  0.39898990  0.60101010       0.002
   0.50000000  0.40151515  0.59848485       0.002
   0.50000000  0.40404040  0.59595960       0.002
   0.50000000  0.40656566  0.59343434       0.002
   0.50000000  0.40909091  0.59090909       0.002
   0.50000000  0.41161616  0.58838384       0.002
   0.50000000  0.41414141  0.58585859       0.002
   0.50000000  0.41666667  0.58333333       0.002
   0.50000000  0.41919192  0.58080808       0.002
   0.50000000  0.42171717  0.57828283       0.002
   0.50000000  0.42424242  0.57575758       0.002
   0.50000000  0.42676768  0.57323232       0.002
   0.50000000  0.42929293  0.57070707       0.002
   0.50000000  0.43181818  0.56818182       0.002
   0.50000000  0.43434343  0.56565657       0.002
   0.50000000  0.43686869  0.56313131       0.002
   0.50000000  0.43939394  0.56060606       0.002
   0.50000000  0.44191919  0.55808081       0.002
   0.50000000  0.44444444  0.55555556       0.002
   0.50000000  0.44696970  0.55303030       0.002
   0.50000000  0.44949495  0.55050505       0.002
   0.50000000  0.45202020  0.54797980       0.002
   0.50000000  0.45454545  0.54545455       0.002
   0.50000000  0.45707071  0.54292929       0.002
   0.50000000  0.45959596  0.54040404       0.002
   0.50000000  0.46212121  0.53787879       0.002
   0.50000000  0.46464646  0.53535354       0.002
   0.50000000  0.46717172  0.53282828       0.002
   0.50000000  0.46969697  0.53030303       0.002
   0.50000000  0.47222222  0.52777778       0.002
[...]
      9      15.9242      0.00000
     10      16.5082      0.00000
     11      17.8711      0.00000
     12      18.5882      0.00000
     13      18.9429      0.00000
     14      19.6367      0.00000
     15      23.1570      0.00000
     16      24.0324      0.00000
     17      24.5719      0.00000
     18      25.3085      0.00000
     19      26.1002      0.00000
     20      26.3141      0.00000

 k-point 585 :       0.4811    0.0568    0.5379
  band No.  band energies     occupation 
      1      -2.3918      2.00000
      2      -1.8274      2.00000
      3       2.6653      2.00000
      4       2.6870      2.00000
      5       6.6067      0.00000
      6       6.7308      0.00000
      7      14.6983      0.00000
      8      15.1853      0.00000
      9      15.9744      0.00000
     10      16.4933      0.00000
     11      17.8861      0.00000
     12      18.5609      0.00000
     13      18.8759      0.00000
     14      19.5217      0.00000
     15      23.2455      0.00000
     16      24.0693      0.00000
     17      24.6131      0.00000
     18      25.2913      0.00000
     19      26.0624      0.00000
     20      26.2845      0.00000

 k-point 586 :       0.4823    0.0530    0.5354
  band No.  band energies     occupation 
      1      -2.3762      2.00000
      2      -1.8481      2.00000
      3       2.6844      2.00000
      4       2.7022      2.00000
      5       6.5731      0.00000
      6       6.6900      0.00000
      7      14.7997      0.00000
      8      15.2264      0.00000
      9      16.0252      0.00000
     10      16.4797      0.00000
     11      17.9009      0.00000
     12      18.5333      0.00000
     13      18.8108      0.00000
     14      19.4088      0.00000
     15      23.3340      0.00000
     16      24.1041      0.00000
     17      24.6564      0.00000
     18      25.2741      0.00000
     19      26.0255      0.00000
     20      26.2515      0.00000

 k-point 587 :       0.4836    0.0492    0.5328
  band No.  band energies     occupation 
      1      -2.3604      2.00000
      2      -1.8688      2.00000
      3       2.7024      2.00000
      4       2.7168      2.00000
      5       6.5417      0.00000
      6       6.6513      0.00000
      7      14.8977      0.00000
      8      15.2653      0.00000
      9      16.0764      0.00000
     10      16.4679      0.00000
     11      17.9154      0.00000
     12      18.5053      0.00000
     13      18.7480      0.00000
     14      19.2986      0.00000
     15      23.4223      0.00000
     16      24.1368      0.00000
     17      24.7016      0.00000
     18      25.2569      0.00000
     19      25.9895      0.00000
     20      26.2146      0.00000

 k-point 588 :       0.4848    0.0455    0.5303
  band No.  band energies     occupation 
      1      -2.3442      2.00000
      2      -1.8895      2.00000
      3       2.7194      2.00000
      4       2.7308      2.00000
      5       6.5126      0.00000
      6       6.6148      0.00000
      7      14.9915      0.00000
      8      15.3020      0.00000
      9      16.1275      0.00000
     10      16.4581      0.00000
     11      17.9295      0.00000
     12      18.4767      0.00000
     13      18.6881      0.00000
     14      19.1916      0.00000
     15      23.5100      0.00000
     16      24.1674      0.00000
     17      24.7482      0.00000
     18      25.2400      0.00000
     19      25.9542      0.00000
     20      26.1733      0.00000

 k-point 589 :       0.4861    0.0417    0.5278
  band No.  band energies     occupation 
      1      -2.3278      2.00000
      2      -1.9101      2.00000
      3       2.7352      2.00000
      4       2.7441      2.00000
      5       6.4860      0.00000
      6       6.5804      0.00000
      7      15.0804      0.00000
      8      15.3365      0.00000
      9      16.1782      0.00000
     10      16.4508      0.00000
     11      17.9430      0.00000
     12      18.4472      0.00000
     13      18.6315      0.00000
     14      19.0883      0.00000
     15      23.5968      0.00000
     16      24.1959      0.00000
     17      24.7958      0.00000
     18      25.2237      0.00000
     19      25.9196      0.00000
     20      26.1273      0.00000

 k-point 590 :       0.4874    0.0379    0.5253
  band No.  band energies     occupation 
      1      -2.3111      2.00000
      2      -1.9307      2.00000
      3       2.7499      2.00000
      4       2.7566      2.00000
      5       6.4618      0.00000
      6       6.5484      0.00000
      7      15.1636      0.00000
      8      15.3689      0.00000
      9      16.2279      0.00000
     10      16.4463      0.00000
     11      17.9556      0.00000
     12      18.4166      0.00000
     13      18.5790      0.00000
     14      18.9897      0.00000
     15      23.6822      0.00000
     16      24.2223      0.00000
     17      24.8439      0.00000
     18      25.2082      0.00000
     19      25.8857      0.00000
     20      26.0767      0.00000

 k-point 591 :       0.4886    0.0341    0.5227
  band No.  band energies     occupation 
      1      -2.2941      2.00000
      2      -1.9512      2.00000
      3       2.7633      2.00000
      4       2.7683      2.00000
      5       6.4402      0.00000
      6       6.5188      0.00000
      7      15.2402      0.00000
      8      15.3992      0.00000
      9      16.2760      0.00000
     10      16.4451      0.00000
     11      17.9670      0.00000
     12      18.3845      0.00000
     13      18.5313      0.00000
     14      18.8966      0.00000
     15      23.7658      0.00000
     16      24.2464      0.00000
     17      24.8921      0.00000
     18      25.1940      0.00000
     19      25.8523      0.00000
     20      26.0218      0.00000

 k-point 592 :       0.4899    0.0303    0.5202
  band No.  band energies     occupation 
      1      -2.2769      2.00000
      2      -1.9716      2.00000
      3       2.7754      2.00000
      4       2.7789      2.00000
      5       6.4212      0.00000
      6       6.4915      0.00000
      7      15.3094      0.00000
      8      15.4273      0.00000
      9      16.3220      0.00000
     10      16.4474      0.00000
     11      17.9771      0.00000
     12      18.3505      0.00000
     13      18.4893      0.00000
     14      18.8102      0.00000
     15      23.8468      0.00000
     16      24.2680      0.00000
     17      24.9396      0.00000
     18      25.1814      0.00000
     19      25.8195      0.00000
     20      25.9637      0.00000

 k-point 593 :       0.4912    0.0265    0.5177
  band No.  band energies     occupation 
      1      -2.2594      2.00000
      2      -1.9919      2.00000
      3       2.7862      2.00000
      4       2.7886      2.00000
      5       6.4049      0.00000
      6       6.4668      0.00000
      7      15.3703      0.00000
      8      15.4531      0.00000
      9      16.3650      0.00000
     10      16.4532      0.00000
     11      17.9857      0.00000
     12      18.3144      0.00000
     13      18.4539      0.00000
     14      18.7314      0.00000
     15      23.9245      0.00000
     16      24.2870      0.00000
     17      24.9858      0.00000
     18      25.1711      0.00000
     19      25.7872      0.00000
     20      25.9037      0.00000

 k-point 594 :       0.4924    0.0227    0.5152
  band No.  band energies     occupation 
      1      -2.2416      2.00000
      2      -2.0122      2.00000
      3       2.7956      2.00000
      4       2.7971      2.00000
      5       6.3912      0.00000
      6       6.4446      0.00000
      7      15.4223      0.00000
      8      15.4766      0.00000
      9      16.4045      0.00000
     10      16.4623      0.00000
     11      17.9929      0.00000
     12      18.2760      0.00000
     13      18.4258      0.00000
     14      18.6612      0.00000
     15      23.9980      0.00000
     16      24.3028      0.00000
     17      25.0298      0.00000
     18      25.1635      0.00000
     19      25.7555      0.00000
     20      25.8436      0.00000

 k-point 595 :       0.4937    0.0189    0.5126
  band No.  band energies     occupation 
      1      -2.2236      2.00000
      2      -2.0322      2.00000
      3       2.8036      2.00000
      4       2.8045      2.00000
      5       6.3803      0.00000
      6       6.4250      0.00000
      7      15.4651      0.00000
      8      15.4976      0.00000
      9      16.4394      0.00000
     10      16.4740      0.00000
     11      17.9991      0.00000
     12      18.2358      0.00000
     13      18.4057      0.00000
     14      18.6002      0.00000
     15      24.0662      0.00000
     16      24.3150      0.00000
     17      25.0704      0.00000
     18      25.1591      0.00000
     19      25.7249      0.00000
     20      25.7857      0.00000

 k-point 596 :       0.4949    0.0152    0.5101
  band No.  band energies     occupation 
      1      -2.2054      2.00000
      2      -2.0522      2.00000
      3       2.8102      2.00000
      4       2.8106      2.00000
      5       6.3722      0.00000
      6       6.4080      0.00000
      7      15.4988      0.00000
      8      15.5158      0.00000
      9      16.4691      0.00000
     10      16.4873      0.00000
     11      18.0053      0.00000
     12      18.1950      0.00000
     13      18.3937      0.00000
     14      18.5484      0.00000
     15      24.1280      0.00000
     16      24.3229      0.00000
     17      25.1063      0.00000
     18      25.1581      0.00000
     19      25.6959      0.00000
     20      25.7327      0.00000

 k-point 597 :       0.4962    0.0114    0.5076
  band No.  band energies     occupation 
      1      -2.1870      2.00000
      2      -2.0720      2.00000
      3       2.8153      2.00000
      4       2.8155      2.00000
      5       6.3668      0.00000
      6       6.3938      0.00000
      7      15.5236      0.00000
      8      15.5309      0.00000
      9      16.4927      0.00000
     10      16.5006      0.00000
     11      18.0129      0.00000
     12      18.1551      0.00000
     13      18.3895      0.00000
     14      18.5051      0.00000
     15      24.1823      0.00000
     16      24.3255      0.00000
     17      25.1358      0.00000
     18      25.1605      0.00000
     19      25.6695      0.00000
     20      25.6876      0.00000

 k-point 598 :       0.4975    0.0076    0.5051
  band No.  band energies     occupation 
      1      -2.1683      2.00000
      2      -2.0916      2.00000
      3       2.8189      2.00000
      4       2.8190      2.00000
      5       6.3643      0.00000
      6       6.3823      0.00000
      7      15.5402      0.00000
      8      15.5424      0.00000
      9      16.5097      0.00000
     10      16.5121      0.00000
     11      18.0234      0.00000
     12      18.1182      0.00000
     13      18.3926      0.00000
     14      18.4696      0.00000
     15      24.2282      0.00000
     16      24.3221      0.00000
     17      25.1571      0.00000
     18      25.1652      0.00000
     19      25.6474      0.00000
     20      25.6535      0.00000

 k-point 599 :       0.4987    0.0038    0.5025
  band No.  band energies     occupation 
      1      -2.1494      2.00000
      2      -2.1111      2.00000
      3       2.8211      2.00000
      4       2.8211      2.00000
      5       6.3646      0.00000
      6       6.3736      0.00000
      7      15.5496      0.00000
      8      15.5499      0.00000
      9      16.5198      0.00000
     10      16.5201      0.00000
     11      18.0384      0.00000
     12      18.0858      0.00000
     13      18.4025      0.00000
     14      18.4410      0.00000
     15      24.2650      0.00000
     16      24.3114      0.00000
     17      25.1692      0.00000
     18      25.1703      0.00000
     19      25.6320      0.00000
     20      25.6328      0.00000

 k-point 600 :       0.5000    0.0000    0.5000
  band No.  band energies     occupation 
      1      -2.1303      2.00000
      2      -2.1303      2.00000
      3       2.8218      2.00000
      4       2.8218      2.00000
      5       6.3677      0.00000
      6       6.3677      0.00000
      7      15.5525      0.00000
      8      15.5525      0.00000
      9      16.5230      0.00000
     10      16.5230      0.00000
     11      18.0591      0.00000
     12      18.0591      0.00000
     13      18.4187      0.00000
     14      18.4187      0.00000
     15      24.2926      0.00000
     16      24.2926      0.00000
     17      25.1728      0.00000
     18      25.1728      0.00000
     19      25.6261      0.00000
     20      25.6261      0.00000


--------------------------------------------------------------------------------------------------------


 soft charge-density along one line, spin component           1
         0         1         2         3         4         5         6         7         8         9
 total charge-density along one line
 
 pseudopotential strength for first ion, spin component:           1
 18.437  25.723  -0.000  -0.000  -0.000  -0.000  -0.000  -0.000
 25.723  35.893  -0.000  -0.000  -0.000  -0.000  -0.000  -0.000
 -0.000  -0.000   4.181  -0.000  -0.000   7.791  -0.000  -0.000
 -0.000  -0.000  -0.000   4.181  -0.000  -0.000   7.791  -0.000
 -0.000  -0.000  -0.000  -0.000   4.181  -0.000  -0.000   7.791
 -0.000  -0.000   7.791  -0.000  -0.000  14.528  -0.000  -0.000
 -0.000  -0.000  -0.000   7.791  -0.000  -0.000  14.528  -0.000
 -0.000  -0.000  -0.000  -0.000   7.791  -0.000  -0.000  14.528
 total augmentation occupancy for first ion, spin component:           1
  2.000   0.000   0.000   0.000   0.000   0.000   0.000   0.000
  0.000   0.000   0.000   0.000   0.000   0.000   0.000   0.000
  0.000   0.000   0.667   0.000   0.000   0.000   0.000   0.000
  0.000   0.000   0.000   0.667   0.000   0.000   0.000   0.000
  0.000   0.000   0.000   0.000   0.667   0.000   0.000   0.000
  0.000   0.000   0.000   0.000   0.000   0.000   0.000   0.000
  0.000   0.000   0.000   0.000   0.000   0.000   0.000   0.000
  0.000   0.000   0.000   0.000   0.000   0.000   0.000   0.000


------------------------ aborting loop because EDIFF is reached ----------------------------------------


 


 total charge     
 
# of ion     s       p       d       tot
----------------------------------------
  1        0.716   0.970   0.000   1.686
  2        0.716   0.970   0.000   1.686
------------------------------------------------
tot        1.432   1.939   0.000   3.371
 
    CHARGE:  cpu time    0.10: real time    0.12
    FORLOC:  cpu time    0.00: real time    0.00
    FORNL :  cpu time    0.26: real time    0.26
    STRESS:  cpu time    0.60: real time    0.60
    FORCOR:  cpu time    0.00: real time    0.00
    FORHAR:  cpu time    0.00: real time    0.00

  FORCE on cell =-STRESS in cart. coord.  units (eV):
  Direction    XX          YY          ZZ          XY          YZ          ZX
  --------------------------------------------------------------------------------------
  Alpha Z     3.29319     3.29319     3.29319
  Ewald     -75.64845   -75.64845   -75.64845     0.00000     0.00000    -0.00000
  Hartree     5.37740     5.37740     5.37740     0.00000     0.00000     0.00000
  E(xc)     -25.26912   -25.26912   -25.26912    -0.00001    -0.00001    -0.00001
  Local     -30.13543   -30.13543   -30.13543     0.00007     0.00007     0.00007
  n-local    78.82131    74.35794    76.88935    -1.78838    -0.68682    -0.90090
  augment   -11.31995   -11.31995   -11.31995    -0.00006    -0.00006    -0.00006
  Kinetic    58.14203    56.68655    60.02581    -1.70525    -1.09096    -1.21561
  Fock        0.00000     0.00000     0.00000     0.00000     0.00000     0.00000
  -------------------------------------------------------------------------------------
  Total       1.27198     1.27198     1.27198     0.00000     0.00000    -0.00000
  in kB      49.84177    49.84177    49.84177     0.00000     0.00000    -0.00000
  external pressure =       49.84 kB  Pullay stress =        0.00 kB


 VOLUME and BASIS-vectors are now :
 -----------------------------------------------------------------------------
  energy-cutoff  :      500.00
  volume of cell :       40.89
      direct lattice vectors                 reciprocal lattice vectors
     0.000000000  2.734360000  2.734360000    -0.182858146  0.182858146  0.182858146
     2.734360000  0.000000000  2.734360000     0.182858146 -0.182858146  0.182858146
     2.734360000  2.734360000  0.000000000     0.182858146  0.182858146 -0.182858146

  length of vectors
     3.866968996  3.866968996  3.866968996     0.316719599  0.316719599  0.316719599


 FORCES acting on ions
    electron-ion (+dipol)            ewald-force                    non-local-force                 convergence-correction
 -----------------------------------------------------------------------------------------------
   -.143E-05 -.143E-05 -.113E-05   -.384E-14 -.429E-14 -.488E-14   0.104E-15 -.139E-16 0.590E-16   -.757E-09 -.757E-09 -.760E-09
   -.516E-05 -.516E-05 -.498E-05   0.393E-14 0.441E-14 0.496E-14   -.104E-15 0.000E+00 -.555E-16   0.690E-09 0.690E-09 0.694E-09
 -----------------------------------------------------------------------------------------------
   -.659E-05 -.659E-05 -.610E-05   0.877E-16 0.121E-15 0.790E-16   0.000E+00 -.139E-16 0.347E-17   -.674E-10 -.674E-10 -.651E-10
 
 
 POSITION                                       TOTAL-FORCE (eV/Angst)
 -----------------------------------------------------------------------------------
      0.00000      0.00000      0.00000        -0.000000     -0.000000     -0.000000
      1.36718      1.36718      1.36718         0.000000      0.000000      0.000000
 -----------------------------------------------------------------------------------
    total drift:                               -0.000007     -0.000007     -0.000006


--------------------------------------------------------------------------------------------------------



  FREE ENERGIE OF THE ION-ELECTRON SYSTEM (eV)
  ---------------------------------------------------
  free  energy   TOTEN  =        -9.41538029 eV

  energy  without entropy=       -9.41537998  energy(sigma->0) =       -9.41538013
 


--------------------------------------------------------------------------------------------------------


    POTLOK:  cpu time    0.00: real time    0.01


--------------------------------------------------------------------------------------------------------


     LOOP+:  cpu time   40.81: real time   41.16
    4ORBIT:  cpu time    0.00: real time    0.00
 


 total charge     
 
# of ion     s       p       d       tot
----------------------------------------
  1        0.716   0.970   0.000   1.686
  2        0.716   0.970   0.000   1.686
------------------------------------------------
tot        1.432   1.939   0.000   3.371
 

 total amount of memory used by VASP on root node    47488. kBytes
========================================================================

   base      :      30000. kBytes
   nonl-proj :       2613. kBytes
   fftplans  :        127. kBytes
   grid      :        153. kBytes
   one-center:          3. kBytes
   wavefun   :      14592. kBytes
 
  
  
 General timing and accounting informations for this job:
 ========================================================
  
                  Total CPU time used (sec):       44.251
                            User time (sec):       42.507
                          System time (sec):        1.744
                         Elapsed time (sec):       45.277
  
                   Maximum memory used (kb):       77032.
                   Average memory used (kb):           0.
  
                          Minor page faults:        19620
                          Major page faults:           85
                 Voluntary context switches:         7991
