<?xml version="1.0" encoding="ISO-8859-1"?>
<modeling>
 <generator>
  <i name="program" type="string">vasp </i>
  <i name="version" type="string">5.3.3  </i>
  <i name="subversion" type="string">18Dez12 (build Apr 06 2015 16:58:45) complex                          parallel </i>
  <i name="platform" type="string">LinuxIFC </i>
  <i name="date" type="string">2015 04 22 </i>
  <i name="time" type="string">14:33:56 </i>
 </generator>
 <incar>
  <i type="string" name="SYSTEM"> bulk	</i>
  <i type="int" name="ISTART">     1</i>
  <i type="string" name="PREC">high</i>
  <i type="string" name="ALGO"> normal</i>
  <i type="int" name="ISPIN">     1</i>
  <i type="int" name="ICHARG">    11</i>
  <i type="int" name="NELM">   100</i>
  <i type="int" name="NELMIN">     8</i>
  <i name="EDIFF">      0.00000100</i>
  <i name="EDIFFG">      0.00000100</i>
  <i name="ENCUT">    500.00000000</i>
  <i type="int" name="NBANDS">    20</i>
  <i name="POTIM">      0.05000000</i>
  <i type="int" name="ISMEAR">     0</i>
  <i name="SIGMA">      0.10000000</i>
  <i type="logical" name="LWAVE"> F  </i>
  <i type="logical" name="LCHARG"> F  </i>
  <i type="logical" name="LORBIT"> F  </i>
  <i type="int" name="NELM">   100</i>
  <i type="string" name="GGA"> PE</i>
 </incar>
 <kpoints>
  <generation param="listgenerated">
   <i name="divisions" type="int">     100 </i>
   <v>       0.00000000       0.00000000       0.00000000 </v>
   <v>       0.50000000       0.00000000       0.50000000 </v>
   <v>       0.50000000       0.25000000       0.75000000 </v>
   <v>       0.50000000       0.50000000       0.50000000 </v>
   <v>       0.00000000       0.00000000       0.00000000 </v>
   <v>       0.37500000       0.37500000       0.75000000 </v>
   <v>       0.50000000       0.00000000       0.50000000 </v>
  </generation>
  <varray name="kpointlist" >
   <v>       0.00000000       0.00000000       0.00000000 </v>
   <v>       0.00505051       0.00000000       0.00505051 </v>
   <v>       0.01010101       0.00000000       0.01010101 </v>
   <v>       0.01515152       0.00000000       0.01515152 </v>
   <v>       0.02020202       0.00000000       0.02020202 </v>
   <v>       0.02525253       0.00000000       0.02525253 </v>
   <v>       0.03030303       0.00000000       0.03030303 </v>
   <v>       0.03535354       0.00000000       0.03535354 </v>
   <v>       0.04040404       0.00000000       0.04040404 </v>
   <v>       0.04545455       0.00000000       0.04545455 </v>
   <v>       0.05050505       0.00000000       0.05050505 </v>
   <v>       0.05555556       0.00000000       0.05555556 </v>
   <v>       0.06060606       0.00000000       0.06060606 </v>
   <v>       0.06565657       0.00000000       0.06565657 </v>
   <v>       0.07070707       0.00000000       0.07070707 </v>
   <v>       0.07575758       0.00000000       0.07575758 </v>
   <v>       0.08080808       0.00000000       0.08080808 </v>
   <v>       0.08585859       0.00000000       0.08585859 </v>
   <v>       0.09090909       0.00000000       0.09090909 </v>
   <v>       0.09595960       0.00000000       0.09595960 </v>
   <v>       0.10101010       0.00000000       0.10101010 </v>
   <v>       0.10606061       0.00000000       0.10606061 </v>
   <v>       0.11111111       0.00000000       0.11111111 </v>
   <v>       0.11616162       0.00000000       0.11616162 </v>
   <v>       0.12121212       0.00000000       0.12121212 </v>
   <v>       0.12626263       0.00000000       0.12626263 </v>
   <v>       0.13131313       0.00000000       0.13131313 </v>
   <v>       0.13636364       0.00000000       0.13636364 </v>
   <v>       0.14141414       0.00000000       0.14141414 </v>
   <v>       0.14646465       0.00000000       0.14646465 </v>
   <v>       0.15151515       0.00000000       0.15151515 </v>
   <v>       0.15656566       0.00000000       0.15656566 </v>
   <v>       0.16161616       0.00000000       0.16161616 </v>
   <v>       0.16666667       0.00000000       0.16666667 </v>
   <v>       0.17171717       0.00000000       0.17171717 </v>
   <v>       0.17676768       0.00000000       0.17676768 </v>
   <v>       0.18181818       0.00000000       0.18181818 </v>
   <v>       0.18686869       0.00000000       0.18686869 </v>
   <v>       0.19191919       0.00000000       0.19191919 </v>
   <v>       0.19696970       0.00000000       0.19696970 </v>
   <v>       0.20202020       0.00000000       0.20202020 </v>
   <v>       0.20707071       0.00000000       0.20707071 </v>
   <v>       0.21212121       0.00000000       0.21212121 </v>
   <v>       0.21717172       0.00000000       0.21717172 </v>
   <v>       0.22222222       0.00000000       0.22222222 </v>
   <v>       0.22727273       0.00000000       0.22727273 </v>
   <v>       0.23232323       0.00000000       0.23232323 </v>
   <v>       0.23737374       0.00000000       0.23737374 </v>
   <v>       0.24242424       0.00000000       0.24242424 </v>
   <v>       0.24747475       0.00000000       0.24747475 </v>
   <v>       0.25252525       0.00000000       0.25252525 </v>
   <v>       0.25757576       0.00000000       0.25757576 </v>
   <v>       0.26262626       0.00000000       0.26262626 </v>
   <v>       0.26767677       0.00000000       0.26767677 </v>
   <v>       0.27272727       0.00000000       0.27272727 </v>
   <v>       0.27777778       0.00000000       0.27777778 </v>
   <v>       0.28282828       0.00000000       0.28282828 </v>
   <v>       0.28787879       0.00000000       0.28787879 </v>
   <v>       0.29292929       0.00000000       0.29292929 </v>
   <v>       0.29797980       0.00000000       0.29797980 </v>
   <v>       0.30303030       0.00000000       0.30303030 </v>
   <v>       0.30808081       0.00000000       0.30808081 </v>
   <v>       0.31313131       0.00000000       0.31313131 </v>
   <v>       0.31818182       0.00000000       0.31818182 </v>
   <v>       0.32323232       0.00000000       0.32323232 </v>
   <v>       0.32828283       0.00000000       0.32828283 </v>
   <v>       0.33333333       0.00000000       0.33333333 </v>
   <v>       0.33838384       0.00000000       0.33838384 </v>
   <v>       0.34343434       0.00000000       0.34343434 </v>
   <v>       0.34848485       0.00000000       0.34848485 </v>
   <v>       0.35353535       0.00000000       0.35353535 </v>
   <v>       0.35858586       0.00000000       0.35858586 </v>
   <v>       0.36363636       0.00000000       0.36363636 </v>
   <v>       0.36868687       0.00000000       0.36868687 </v>
   <v>       0.37373737       0.00000000       0.37373737 </v>
   <v>       0.37878788       0.00000000       0.37878788 </v>
   <v>       0.38383838       0.00000000       0.38383838 </v>
   <v>       0.38888889       0.00000000       0.38888889 </v>
   <v>       0.39393939       0.00000000       0.39393939 </v>
   <v>       0.39898990       0.00000000       0.39898990 </v>
   <v>       0.40404040       0.00000000       0.40404040 </v>
   <v>       0.40909091       0.00000000       0.40909091 </v>
   <v>       0.41414141       0.00000000       0.41414141 </v>
   <v>       0.41919192       0.00000000       0.41919192 </v>
   <v>       0.42424242       0.00000000       0.42424242 </v>
   <v>       0.42929293       0.00000000       0.42929293 </v>
   <v>       0.43434343       0.00000000       0.43434343 </v>
   <v>       0.43939394       0.00000000       0.43939394 </v>
   <v>       0.44444444       0.00000000       0.44444444 </v>
   <v>       0.44949495       0.00000000       0.44949495 </v>
   <v>       0.45454545       0.00000000       0.45454545 </v>
   <v>       0.45959596       0.00000000       0.45959596 </v>
   <v>       0.46464646       0.00000000       0.46464646 </v>
   <v>       0.46969697       0.00000000       0.46969697 </v>
   <v>       0.47474747       0.00000000       0.47474747 </v>
   <v>       0.47979798       0.00000000       0.47979798 </v>
   <v>       0.48484848       0.00000000       0.48484848 </v>
   <v>       0.48989899       0.00000000       0.48989899 </v>
   <v>       0.49494949       0.00000000       0.49494949 </v>
   <v>       0.50000000       0.00000000       0.50000000 </v>
   <v>       0.50000000       0.00000000       0.50000000 </v>
   <v>       0.50000000       0.00252525       0.50252525 </v>
   <v>       0.50000000       0.00505051       0.50505051 </v>
   <v>       0.50000000       0.00757576       0.50757576 </v>
   <v>       0.50000000       0.01010101       0.51010101 </v>
   <v>       0.50000000       0.01262626       0.51262626 </v>
   <v>       0.50000000       0.01515152       0.51515152 </v>
   <v>       0.50000000       0.01767677       0.51767677 </v>
   <v>       0.50000000       0.02020202       0.52020202 </v>
   <v>       0.50000000       0.02272727       0.52272727 </v>
   <v>       0.50000000       0.02525253       0.52525253 </v>
   <v>       0.50000000       0.02777778       0.52777778 </v>
   <v>       0.50000000       0.03030303       0.53030303 </v>
   <v>       0.50000000       0.03282828       0.53282828 </v>
   <v>       0.50000000       0.03535354       0.53535354 </v>
   <v>       0.50000000       0.03787879       0.53787879 </v>
   <v>       0.50000000       0.04040404       0.54040404 </v>
   <v>       0.50000000       0.04292929       0.54292929 </v>
   <v>       0.50000000       0.04545455       0.54545455 </v>
   <v>       0.50000000       0.04797980       0.54797980 </v>
   <v>       0.50000000       0.05050505       0.55050505 </v>
   <v>       0.50000000       0.05303030       0.55303030 </v>
   <v>       0.50000000       0.05555556       0.55555556 </v>
   <v>       0.50000000       0.05808081       0.55808081 </v>
   <v>       0.50000000       0.06060606       0.56060606 </v>
   <v>       0.50000000       0.06313131       0.56313131 </v>
   <v>       0.50000000       0.06565657       0.56565657 </v>
   <v>       0.50000000       0.06818182       0.56818182 </v>
   <v>       0.50000000       0.07070707       0.57070707 </v>
   <v>       0.50000000       0.07323232       0.57323232 </v>
   <v>       0.50000000       0.07575758       0.57575758 </v>
   <v>       0.50000000       0.07828283       0.57828283 </v>
   <v>       0.50000000       0.08080808       0.58080808 </v>
   <v>       0.50000000       0.08333333       0.58333333 </v>
   <v>       0.50000000       0.08585859       0.58585859 </v>
   <v>       0.50000000       0.08838384       0.58838384 </v>
   <v>       0.50000000       0.09090909       0.59090909 </v>
   <v>       0.50000000       0.09343434       0.59343434 </v>
   <v>       0.50000000       0.09595960       0.59595960 </v>
   <v>       0.50000000       0.09848485       0.59848485 </v>
   <v>       0.50000000       0.10101010       0.60101010 </v>
   <v>       0.50000000       0.10353535       0.60353535 </v>
   <v>       0.50000000       0.10606061       0.60606061 </v>
   <v>       0.50000000       0.10858586       0.60858586 </v>
   <v>       0.50000000       0.11111111       0.61111111 </v>
   <v>       0.50000000       0.11363636       0.61363636 </v>
   <v>       0.50000000       0.11616162       0.61616162 </v>
   <v>       0.50000000       0.11868687       0.61868687 </v>
   <v>       0.50000000       0.12121212       0.62121212 </v>
   <v>       0.50000000       0.12373737       0.62373737 </v>
   <v>       0.50000000       0.12626263       0.62626263 </v>
   <v>       0.50000000       0.12878788       0.62878788 </v>
   <v>       0.50000000       0.13131313       0.63131313 </v>
   <v>       0.50000000       0.13383838       0.63383838 </v>
   <v>       0.50000000       0.13636364       0.63636364 </v>
   <v>       0.50000000       0.13888889       0.63888889 </v>
   <v>       0.50000000       0.14141414       0.64141414 </v>
   <v>       0.50000000       0.14393939       0.64393939 </v>
   <v>       0.50000000       0.14646465       0.64646465 </v>
   <v>       0.50000000       0.14898990       0.64898990 </v>
   <v>       0.50000000       0.15151515       0.65151515 </v>
   <v>       0.50000000       0.15404040       0.65404040 </v>
   <v>       0.50000000       0.15656566       0.65656566 </v>
   <v>       0.50000000       0.15909091       0.65909091 </v>
   <v>       0.50000000       0.16161616       0.66161616 </v>
   <v>       0.50000000       0.16414141       0.66414141 </v>
   <v>       0.50000000       0.16666667       0.66666667 </v>
   <v>       0.50000000       0.16919192       0.66919192 </v>
   <v>       0.50000000       0.17171717       0.67171717 </v>
   <v>       0.50000000       0.17424242       0.67424242 </v>
   <v>       0.50000000       0.17676768       0.67676768 </v>
   <v>       0.50000000       0.17929293       0.67929293 </v>
   <v>       0.50000000       0.18181818       0.68181818 </v>
   <v>       0.50000000       0.18434343       0.68434343 </v>
   <v>       0.50000000       0.18686869       0.68686869 </v>
   <v>       0.50000000       0.18939394       0.68939394 </v>
   <v>       0.50000000       0.19191919       0.69191919 </v>
   <v>       0.50000000       0.19444444       0.69444444 </v>
   <v>       0.50000000       0.19696970       0.69696970 </v>
   <v>       0.50000000       0.19949495       0.69949495 </v>
   <v>       0.50000000       0.20202020       0.70202020 </v>
   <v>       0.50000000       0.20454545       0.70454545 </v>
   <v>       0.50000000       0.20707071       0.70707071 </v>
   <v>       0.50000000       0.20959596       0.70959596 </v>
   <v>       0.50000000       0.21212121       0.71212121 </v>
   <v>       0.50000000       0.21464646       0.71464646 </v>
   <v>       0.50000000       0.21717172       0.71717172 </v>
   <v>       0.50000000       0.21969697       0.71969697 </v>
   <v>       0.50000000       0.22222222       0.72222222 </v>
   <v>       0.50000000       0.22474747       0.72474747 </v>
   <v>       0.50000000       0.22727273       0.72727273 </v>
   <v>       0.50000000       0.22979798       0.72979798 </v>
   <v>       0.50000000       0.23232323       0.73232323 </v>
   <v>       0.50000000       0.23484848       0.73484848 </v>
   <v>       0.50000000       0.23737374       0.73737374 </v>
   <v>       0.50000000       0.23989899       0.73989899 </v>
   <v>       0.50000000       0.24242424       0.74242424 </v>
   <v>       0.50000000       0.24494949       0.74494949 </v>
   <v>       0.50000000       0.24747475       0.74747475 </v>
   <v>       0.50000000       0.25000000       0.75000000 </v>
   <v>       0.50000000       0.25000000       0.75000000 </v>
   <v>       0.50000000       0.25252525       0.74747475 </v>
   <v>       0.50000000       0.25505051       0.74494949 </v>
   <v>       0.50000000       0.25757576       0.74242424 </v>
   <v>       0.50000000       0.26010101       0.73989899 </v>
   <v>       0.50000000       0.26262626       0.73737374 </v>
   <v>       0.50000000       0.26515152       0.73484848 </v>
   <v>       0.50000000       0.26767677       0.73232323 </v>
   <v>       0.50000000       0.27020202       0.72979798 </v>
   <v>       0.50000000       0.27272727       0.72727273 </v>
   <v>       0.50000000       0.27525253       0.72474747 </v>
   <v>       0.50000000       0.27777778       0.72222222 </v>
   <v>       0.50000000       0.28030303       0.71969697 </v>
   <v>       0.50000000       0.28282828       0.71717172 </v>
   <v>       0.50000000       0.28535354       0.71464646 </v>
   <v>       0.50000000       0.28787879       0.71212121 </v>
   <v>       0.50000000       0.29040404       0.70959596 </v>
   <v>       0.50000000       0.29292929       0.70707071 </v>
   <v>       0.50000000       0.29545455       0.70454545 </v>
   <v>       0.50000000       0.29797980       0.70202020 </v>
   <v>       0.50000000       0.30050505       0.69949495 </v>
   <v>       0.50000000       0.30303030       0.69696970 </v>
   <v>       0.50000000       0.30555556       0.69444444 </v>
   <v>       0.50000000       0.30808081       0.69191919 </v>
   <v>       0.50000000       0.31060606       0.68939394 </v>
   <v>       0.50000000       0.31313131       0.68686869 </v>
   <v>       0.50000000       0.31565657       0.68434343 </v>
   <v>       0.50000000       0.31818182       0.68181818 </v>
   <v>       0.50000000       0.32070707       0.67929293 </v>
   <v>       0.50000000       0.32323232       0.67676768 </v>
   <v>       0.50000000       0.32575758       0.67424242 </v>
   <v>       0.50000000       0.32828283       0.67171717 </v>
   <v>       0.50000000       0.33080808       0.66919192 </v>
   <v>       0.50000000       0.33333333       0.66666667 </v>
   <v>       0.50000000       0.33585859       0.66414141 </v>
   <v>       0.50000000       0.33838384       0.66161616 </v>
   <v>       0.50000000       0.34090909       0.65909091 </v>
   <v>       0.50000000       0.34343434       0.65656566 </v>
   <v>       0.50000000       0.34595960       0.65404040 </v>
   <v>       0.50000000       0.34848485       0.65151515 </v>
   <v>       0.50000000       0.35101010       0.64898990 </v>
   <v>       0.50000000       0.35353535       0.64646465 </v>
   <v>       0.50000000       0.35606061       0.64393939 </v>
   <v>       0.50000000       0.35858586       0.64141414 </v>
   <v>       0.50000000       0.36111111       0.63888889 </v>
   <v>       0.50000000       0.36363636       0.63636364 </v>
   <v>       0.50000000       0.36616162       0.63383838 </v>
   <v>       0.50000000       0.36868687       0.63131313 </v>
   <v>       0.50000000       0.37121212       0.62878788 </v>
   <v>       0.50000000       0.37373737       0.62626263 </v>
   <v>       0.50000000       0.37626263       0.62373737 </v>
   <v>       0.50000000       0.37878788       0.62121212 </v>
   <v>       0.50000000       0.38131313       0.61868687 </v>
   <v>       0.50000000       0.38383838       0.61616162 </v>
   <v>       0.50000000       0.38636364       0.61363636 </v>
   <v>       0.50000000       0.38888889       0.61111111 </v>
   <v>       0.50000000       0.39141414       0.60858586 </v>
   <v>       0.50000000       0.39393939       0.60606061 </v>
   <v>       0.50000000       0.39646465       0.60353535 </v>
   <v>       0.50000000       0.39898990       0.60101010 </v>
   <v>       0.50000000       0.40151515       0.59848485 </v>
   <v>       0.50000000       0.40404040       0.59595960 </v>
   <v>       0.50000000       0.40656566       0.59343434 </v>
   <v>       0.50000000       0.40909091       0.59090909 </v>
   <v>       0.50000000       0.41161616       0.58838384 </v>
   <v>       0.50000000       0.41414141       0.58585859 </v>
   <v>       0.50000000       0.41666667       0.58333333 </v>
   <v>       0.50000000       0.41919192       0.58080808 </v>
   <v>       0.50000000       0.42171717       0.57828283 </v>
   <v>       0.50000000       0.42424242       0.57575758 </v>
   <v>       0.50000000       0.42676768       0.57323232 </v>
   <v>       0.50000000       0.42929293       0.57070707 </v>
   <v>       0.50000000       0.43181818       0.56818182 </v>
   <v>       0.50000000       0.43434343       0.56565657 </v>
   <v>       0.50000000       0.43686869       0.56313131 </v>
   <v>       0.50000000       0.43939394       0.56060606 </v>
   <v>       0.50000000       0.44191919       0.55808081 </v>
   <v>       0.50000000       0.44444444       0.55555556 </v>
   <v>       0.50000000       0.44696970       0.55303030 </v>
   <v>       0.50000000       0.44949495       0.55050505 </v>
   <v>       0.50000000       0.45202020       0.54797980 </v>
   <v>       0.50000000       0.45454545       0.54545455 </v>
   <v>       0.50000000       0.45707071       0.54292929 </v>
   <v>       0.50000000       0.45959596       0.54040404 </v>
   <v>       0.50000000       0.46212121       0.53787879 </v>
   <v>       0.50000000       0.46464646       0.53535354 </v>
   <v>       0.50000000       0.46717172       0.53282828 </v>
   <v>       0.50000000       0.46969697       0.53030303 </v>
   <v>       0.50000000       0.47222222       0.52777778 </v>
   <v>       0.50000000       0.47474747       0.52525253 </v>
   <v>       0.50000000       0.47727273       0.52272727 </v>
   <v>       0.50000000       0.47979798       0.52020202 </v>
   <v>       0.50000000       0.48232323       0.51767677 </v>
   <v>       0.50000000       0.48484848       0.51515152 </v>
   <v>       0.50000000       0.48737374       0.51262626 </v>
   <v>       0.50000000       0.48989899       0.51010101 </v>
   <v>       0.50000000       0.49242424       0.50757576 </v>
   <v>       0.50000000       0.49494949       0.50505051 </v>
   <v>       0.50000000       0.49747475       0.50252525 </v>
   <v>       0.50000000       0.50000000       0.50000000 </v>
   <v>       0.50000000       0.50000000       0.50000000 </v>
   <v>       0.49494949       0.49494949       0.49494949 </v>
   <v>       0.48989899       0.48989899       0.48989899 </v>
   <v>       0.48484848       0.48484848       0.48484848 </v>
   <v>       0.47979798       0.47979798       0.47979798 </v>
   <v>       0.47474747       0.47474747       0.47474747 </v>
   <v>       0.46969697       0.46969697       0.46969697 </v>
   <v>       0.46464646       0.46464646       0.46464646 </v>
   <v>       0.45959596       0.45959596       0.45959596 </v>
   <v>       0.45454545       0.45454545       0.45454545 </v>
   <v>       0.44949495       0.44949495       0.44949495 </v>
   <v>       0.44444444       0.44444444       0.44444444 </v>
   <v>       0.43939394       0.43939394       0.43939394 </v>
   <v>       0.43434343       0.43434343       0.43434343 </v>
   <v>       0.42929293       0.42929293       0.42929293 </v>
   <v>       0.42424242       0.42424242       0.42424242 </v>
   <v>       0.41919192       0.41919192       0.41919192 </v>
   <v>       0.41414141       0.41414141       0.41414141 </v>
   <v>       0.40909091       0.40909091       0.40909091 </v>
   <v>       0.40404040       0.40404040       0.40404040 </v>
   <v>       0.39898990       0.39898990       0.39898990 </v>
   <v>       0.39393939       0.39393939       0.39393939 </v>
   <v>       0.38888889       0.38888889       0.38888889 </v>
   <v>       0.38383838       0.38383838       0.38383838 </v>
   <v>       0.37878788       0.37878788       0.37878788 </v>
   <v>       0.37373737       0.37373737       0.37373737 </v>
   <v>       0.36868687       0.36868687       0.36868687 </v>
   <v>       0.36363636       0.36363636       0.36363636 </v>
   <v>       0.35858586       0.35858586       0.35858586 </v>
   <v>       0.35353535       0.35353535       0.35353535 </v>
   <v>       0.34848485       0.34848485       0.34848485 </v>
   <v>       0.34343434       0.34343434       0.34343434 </v>
   <v>       0.33838384       0.33838384       0.33838384 </v>
   <v>       0.33333333       0.33333333       0.33333333 </v>
   <v>       0.32828283       0.32828283       0.32828283 </v>
   <v>       0.32323232       0.32323232       0.32323232 </v>
   <v>       0.31818182       0.31818182       0.31818182 </v>
   <v>       0.31313131       0.31313131       0.31313131 </v>
   <v>       0.30808081       0.30808081       0.30808081 </v>
   <v>       0.30303030       0.30303030       0.30303030 </v>
   <v>       0.29797980       0.29797980       0.29797980 </v>
   <v>       0.29292929       0.29292929       0.29292929 </v>
   <v>       0.28787879       0.28787879       0.28787879 </v>
   <v>       0.28282828       0.28282828       0.28282828 </v>
   <v>       0.27777778       0.27777778       0.27777778 </v>
   <v>       0.27272727       0.27272727       0.27272727 </v>
   <v>       0.26767677       0.26767677       0.26767677 </v>
   <v>       0.26262626       0.26262626       0.26262626 </v>
   <v>       0.25757576       0.25757576       0.25757576 </v>
   <v>       0.25252525       0.25252525       0.25252525 </v>
   <v>       0.24747475       0.24747475       0.24747475 </v>
   <v>       0.24242424       0.24242424       0.24242424 </v>
   <v>       0.23737374       0.23737374       0.23737374 </v>
   <v>       0.23232323       0.23232323       0.23232323 </v>
   <v>       0.22727273       0.22727273       0.22727273 </v>
   <v>       0.22222222       0.22222222       0.22222222 </v>
   <v>       0.21717172       0.21717172       0.21717172 </v>
   <v>       0.21212121       0.21212121       0.21212121 </v>
   <v>       0.20707071       0.20707071       0.20707071 </v>
   <v>       0.20202020       0.20202020       0.20202020 </v>
   <v>       0.19696970       0.19696970       0.19696970 </v>
   <v>       0.19191919       0.19191919       0.19191919 </v>
   <v>       0.18686869       0.18686869       0.18686869 </v>
   <v>       0.18181818       0.18181818       0.18181818 </v>
   <v>       0.17676768       0.17676768       0.17676768 </v>
   <v>       0.17171717       0.17171717       0.17171717 </v>
   <v>       0.16666667       0.16666667       0.16666667 </v>
   <v>       0.16161616       0.16161616       0.16161616 </v>
   <v>       0.15656566       0.15656566       0.15656566 </v>
   <v>       0.15151515       0.15151515       0.15151515 </v>
   <v>       0.14646465       0.14646465       0.14646465 </v>
   <v>       0.14141414       0.14141414       0.14141414 </v>
   <v>       0.13636364       0.13636364       0.13636364 </v>
   <v>       0.13131313       0.13131313       0.13131313 </v>
   <v>       0.12626263       0.12626263       0.12626263 </v>
   <v>       0.12121212       0.12121212       0.12121212 </v>
   <v>       0.11616162       0.11616162       0.11616162 </v>
   <v>       0.11111111       0.11111111       0.11111111 </v>
   <v>       0.10606061       0.10606061       0.10606061 </v>
   <v>       0.10101010       0.10101010       0.10101010 </v>
   <v>       0.09595960       0.09595960       0.09595960 </v>
   <v>       0.09090909       0.09090909       0.09090909 </v>
   <v>       0.08585859       0.08585859       0.08585859 </v>
   <v>       0.08080808       0.08080808       0.08080808 </v>
   <v>       0.07575758       0.07575758       0.07575758 </v>
   <v>       0.07070707       0.07070707       0.07070707 </v>
   <v>       0.06565657       0.06565657       0.06565657 </v>
   <v>       0.06060606       0.06060606       0.06060606 </v>
   <v>       0.05555556       0.05555556       0.05555556 </v>
   <v>       0.05050505       0.05050505       0.05050505 </v>
   <v>       0.04545455       0.04545455       0.04545455 </v>
   <v>       0.04040404       0.04040404       0.04040404 </v>
   <v>       0.03535354       0.03535354       0.03535354 </v>
   <v>       0.03030303       0.03030303       0.03030303 </v>
   <v>       0.02525253       0.02525253       0.02525253 </v>
   <v>       0.02020202       0.02020202       0.02020202 </v>
   <v>       0.01515152       0.01515152       0.01515152 </v>
   <v>       0.01010101       0.01010101       0.01010101 </v>
   <v>       0.00505051       0.00505051       0.00505051 </v>
   <v>       0.00000000       0.00000000       0.00000000 </v>
   <v>       0.00000000       0.00000000       0.00000000 </v>
   <v>       0.00378788       0.00378788       0.00757576 </v>
   <v>       0.00757576       0.00757576       0.01515152 </v>
   <v>       0.01136364       0.01136364       0.02272727 </v>
   <v>       0.01515152       0.01515152       0.03030303 </v>
   <v>       0.01893939       0.01893939       0.03787879 </v>
   <v>       0.02272727       0.02272727       0.04545455 </v>
   <v>       0.02651515       0.02651515       0.05303030 </v>
   <v>       0.03030303       0.03030303       0.06060606 </v>
   <v>       0.03409091       0.03409091       0.06818182 </v>
   <v>       0.03787879       0.03787879       0.07575758 </v>
   <v>       0.04166667       0.04166667       0.08333333 </v>
   <v>       0.04545455       0.04545455       0.09090909 </v>
   <v>       0.04924242       0.04924242       0.09848485 </v>
   <v>       0.05303030       0.05303030       0.10606061 </v>
   <v>       0.05681818       0.05681818       0.11363636 </v>
   <v>       0.06060606       0.06060606       0.12121212 </v>
   <v>       0.06439394       0.06439394       0.12878788 </v>
   <v>       0.06818182       0.06818182       0.13636364 </v>
   <v>       0.07196970       0.07196970       0.14393939 </v>
   <v>       0.07575758       0.07575758       0.15151515 </v>
   <v>       0.07954545       0.07954545       0.15909091 </v>
   <v>       0.08333333       0.08333333       0.16666667 </v>
   <v>       0.08712121       0.08712121       0.17424242 </v>
   <v>       0.09090909       0.09090909       0.18181818 </v>
   <v>       0.09469697       0.09469697       0.18939394 </v>
   <v>       0.09848485       0.09848485       0.19696970 </v>
   <v>       0.10227273       0.10227273       0.20454545 </v>
   <v>       0.10606061       0.10606061       0.21212121 </v>
   <v>       0.10984848       0.10984848       0.21969697 </v>
   <v>       0.11363636       0.11363636       0.22727273 </v>
   <v>       0.11742424       0.11742424       0.23484848 </v>
   <v>       0.12121212       0.12121212       0.24242424 </v>
   <v>       0.12500000       0.12500000       0.25000000 </v>
   <v>       0.12878788       0.12878788       0.25757576 </v>
   <v>       0.13257576       0.13257576       0.26515152 </v>
   <v>       0.13636364       0.13636364       0.27272727 </v>
   <v>       0.14015152       0.14015152       0.28030303 </v>
   <v>       0.14393939       0.14393939       0.28787879 </v>
   <v>       0.14772727       0.14772727       0.29545455 </v>
   <v>       0.15151515       0.15151515       0.30303030 </v>
   <v>       0.15530303       0.15530303       0.31060606 </v>
   <v>       0.15909091       0.15909091       0.31818182 </v>
   <v>       0.16287879       0.16287879       0.32575758 </v>
   <v>       0.16666667       0.16666667       0.33333333 </v>
   <v>       0.17045455       0.17045455       0.34090909 </v>
   <v>       0.17424242       0.17424242       0.34848485 </v>
   <v>       0.17803030       0.17803030       0.35606061 </v>
   <v>       0.18181818       0.18181818       0.36363636 </v>
   <v>       0.18560606       0.18560606       0.37121212 </v>
   <v>       0.18939394       0.18939394       0.37878788 </v>
   <v>       0.19318182       0.19318182       0.38636364 </v>
   <v>       0.19696970       0.19696970       0.39393939 </v>
   <v>       0.20075758       0.20075758       0.40151515 </v>
   <v>       0.20454545       0.20454545       0.40909091 </v>
   <v>       0.20833333       0.20833333       0.41666667 </v>
   <v>       0.21212121       0.21212121       0.42424242 </v>
   <v>       0.21590909       0.21590909       0.43181818 </v>
   <v>       0.21969697       0.21969697       0.43939394 </v>
   <v>       0.22348485       0.22348485       0.44696970 </v>
   <v>       0.22727273       0.22727273       0.45454545 </v>
   <v>       0.23106061       0.23106061       0.46212121 </v>
   <v>       0.23484848       0.23484848       0.46969697 </v>
   <v>       0.23863636       0.23863636       0.47727273 </v>
   <v>       0.24242424       0.24242424       0.48484848 </v>
   <v>       0.24621212       0.24621212       0.49242424 </v>
   <v>       0.25000000       0.25000000       0.50000000 </v>
   <v>       0.25378788       0.25378788       0.50757576 </v>
   <v>       0.25757576       0.25757576       0.51515152 </v>
   <v>       0.26136364       0.26136364       0.52272727 </v>
   <v>       0.26515152       0.26515152       0.53030303 </v>
   <v>       0.26893939       0.26893939       0.53787879 </v>
   <v>       0.27272727       0.27272727       0.54545455 </v>
   <v>       0.27651515       0.27651515       0.55303030 </v>
   <v>       0.28030303       0.28030303       0.56060606 </v>
   <v>       0.28409091       0.28409091       0.56818182 </v>
   <v>       0.28787879       0.28787879       0.57575758 </v>
   <v>       0.29166667       0.29166667       0.58333333 </v>
   <v>       0.29545455       0.29545455       0.59090909 </v>
   <v>       0.29924242       0.29924242       0.59848485 </v>
   <v>       0.30303030       0.30303030       0.60606061 </v>
   <v>       0.30681818       0.30681818       0.61363636 </v>
   <v>       0.31060606       0.31060606       0.62121212 </v>
   <v>       0.31439394       0.31439394       0.62878788 </v>
   <v>       0.31818182       0.31818182       0.63636364 </v>
   <v>       0.32196970       0.32196970       0.64393939 </v>
   <v>       0.32575758       0.32575758       0.65151515 </v>
   <v>       0.32954545       0.32954545       0.65909091 </v>
   <v>       0.33333333       0.33333333       0.66666667 </v>
   <v>       0.33712121       0.33712121       0.67424242 </v>
   <v>       0.34090909       0.34090909       0.68181818 </v>
   <v>       0.34469697       0.34469697       0.68939394 </v>
   <v>       0.34848485       0.34848485       0.69696970 </v>
   <v>       0.35227273       0.35227273       0.70454545 </v>
   <v>       0.35606061       0.35606061       0.71212121 </v>
   <v>       0.35984848       0.35984848       0.71969697 </v>
   <v>       0.36363636       0.36363636       0.72727273 </v>
   <v>       0.36742424       0.36742424       0.73484848 </v>
   <v>       0.37121212       0.37121212       0.74242424 </v>
   <v>       0.37500000       0.37500000       0.75000000 </v>
   <v>       0.37500000       0.37500000       0.75000000 </v>
   <v>       0.37626263       0.37121212       0.74747475 </v>
   <v>       0.37752525       0.36742424       0.74494949 </v>
   <v>       0.37878788       0.36363636       0.74242424 </v>
   <v>       0.38005051       0.35984848       0.73989899 </v>
   <v>       0.38131313       0.35606061       0.73737374 </v>
   <v>       0.38257576       0.35227273       0.73484848 </v>
   <v>       0.38383838       0.34848485       0.73232323 </v>
   <v>       0.38510101       0.34469697       0.72979798 </v>
   <v>       0.38636364       0.34090909       0.72727273 </v>
   <v>       0.38762626       0.33712121       0.72474747 </v>
   <v>       0.38888889       0.33333333       0.72222222 </v>
   <v>       0.39015152       0.32954545       0.71969697 </v>
   <v>       0.39141414       0.32575758       0.71717172 </v>
   <v>       0.39267677       0.32196970       0.71464646 </v>
   <v>       0.39393939       0.31818182       0.71212121 </v>
   <v>       0.39520202       0.31439394       0.70959596 </v>
   <v>       0.39646465       0.31060606       0.70707071 </v>
   <v>       0.39772727       0.30681818       0.70454545 </v>
   <v>       0.39898990       0.30303030       0.70202020 </v>
   <v>       0.40025253       0.29924242       0.69949495 </v>
   <v>       0.40151515       0.29545455       0.69696970 </v>
   <v>       0.40277778       0.29166667       0.69444444 </v>
   <v>       0.40404040       0.28787879       0.69191919 </v>
   <v>       0.40530303       0.28409091       0.68939394 </v>
   <v>       0.40656566       0.28030303       0.68686869 </v>
   <v>       0.40782828       0.27651515       0.68434343 </v>
   <v>       0.40909091       0.27272727       0.68181818 </v>
   <v>       0.41035354       0.26893939       0.67929293 </v>
   <v>       0.41161616       0.26515152       0.67676768 </v>
   <v>       0.41287879       0.26136364       0.67424242 </v>
   <v>       0.41414141       0.25757576       0.67171717 </v>
   <v>       0.41540404       0.25378788       0.66919192 </v>
   <v>       0.41666667       0.25000000       0.66666667 </v>
   <v>       0.41792929       0.24621212       0.66414141 </v>
   <v>       0.41919192       0.24242424       0.66161616 </v>
   <v>       0.42045455       0.23863636       0.65909091 </v>
   <v>       0.42171717       0.23484848       0.65656566 </v>
   <v>       0.42297980       0.23106061       0.65404040 </v>
   <v>       0.42424242       0.22727273       0.65151515 </v>
   <v>       0.42550505       0.22348485       0.64898990 </v>
   <v>       0.42676768       0.21969697       0.64646465 </v>
   <v>       0.42803030       0.21590909       0.64393939 </v>
   <v>       0.42929293       0.21212121       0.64141414 </v>
   <v>       0.43055556       0.20833333       0.63888889 </v>
   <v>       0.43181818       0.20454545       0.63636364 </v>
   <v>       0.43308081       0.20075758       0.63383838 </v>
   <v>       0.43434343       0.19696970       0.63131313 </v>
   <v>       0.43560606       0.19318182       0.62878788 </v>
   <v>       0.43686869       0.18939394       0.62626263 </v>
   <v>       0.43813131       0.18560606       0.62373737 </v>
   <v>       0.43939394       0.18181818       0.62121212 </v>
   <v>       0.44065657       0.17803030       0.61868687 </v>
   <v>       0.44191919       0.17424242       0.61616162 </v>
   <v>       0.44318182       0.17045455       0.61363636 </v>
   <v>       0.44444444       0.16666667       0.61111111 </v>
   <v>       0.44570707       0.16287879       0.60858586 </v>
   <v>       0.44696970       0.15909091       0.60606061 </v>
   <v>       0.44823232       0.15530303       0.60353535 </v>
   <v>       0.44949495       0.15151515       0.60101010 </v>
   <v>       0.45075758       0.14772727       0.59848485 </v>
   <v>       0.45202020       0.14393939       0.59595960 </v>
   <v>       0.45328283       0.14015152       0.59343434 </v>
   <v>       0.45454545       0.13636364       0.59090909 </v>
   <v>       0.45580808       0.13257576       0.58838384 </v>
   <v>       0.45707071       0.12878788       0.58585859 </v>
   <v>       0.45833333       0.12500000       0.58333333 </v>
   <v>       0.45959596       0.12121212       0.58080808 </v>
   <v>       0.46085859       0.11742424       0.57828283 </v>
   <v>       0.46212121       0.11363636       0.57575758 </v>
   <v>       0.46338384       0.10984848       0.57323232 </v>
   <v>       0.46464646       0.10606061       0.57070707 </v>
   <v>       0.46590909       0.10227273       0.56818182 </v>
   <v>       0.46717172       0.09848485       0.56565657 </v>
   <v>       0.46843434       0.09469697       0.56313131 </v>
   <v>       0.46969697       0.09090909       0.56060606 </v>
   <v>       0.47095960       0.08712121       0.55808081 </v>
   <v>       0.47222222       0.08333333       0.55555556 </v>
   <v>       0.47348485       0.07954545       0.55303030 </v>
   <v>       0.47474747       0.07575758       0.55050505 </v>
   <v>       0.47601010       0.07196970       0.54797980 </v>
   <v>       0.47727273       0.06818182       0.54545455 </v>
   <v>       0.47853535       0.06439394       0.54292929 </v>
   <v>       0.47979798       0.06060606       0.54040404 </v>
   <v>       0.48106061       0.05681818       0.53787879 </v>
   <v>       0.48232323       0.05303030       0.53535354 </v>
   <v>       0.48358586       0.04924242       0.53282828 </v>
   <v>       0.48484848       0.04545455       0.53030303 </v>
   <v>       0.48611111       0.04166667       0.52777778 </v>
   <v>       0.48737374       0.03787879       0.52525253 </v>
   <v>       0.48863636       0.03409091       0.52272727 </v>
   <v>       0.48989899       0.03030303       0.52020202 </v>
   <v>       0.49116162       0.02651515       0.51767677 </v>
   <v>       0.49242424       0.02272727       0.51515152 </v>
   <v>       0.49368687       0.01893939       0.51262626 </v>
   <v>       0.49494949       0.01515152       0.51010101 </v>
   <v>       0.49621212       0.01136364       0.50757576 </v>
   <v>       0.49747475       0.00757576       0.50505051 </v>
   <v>       0.49873737       0.00378788       0.50252525 </v>
   <v>       0.50000000       0.00000000       0.50000000 </v>
  </varray>
  <varray name="weights" >
   <v>       0.00166667 </v>
   <v>       0.00166667 </v>
   <v>       0.00166667 </v>
   <v>       0.00166667 </v>
   <v>       0.00166667 </v>
   <v>       0.00166667 </v>
   <v>       0.00166667 </v>
   <v>       0.00166667 </v>
   <v>       0.00166667 </v>
   <v>       0.00166667 </v>
   <v>       0.00166667 </v>
   <v>       0.00166667 </v>
   <v>       0.00166667 </v>
   <v>       0.00166667 </v>
   <v>       0.00166667 </v>
   <v>       0.00166667 </v>
   <v>       0.00166667 </v>
   <v>       0.00166667 </v>
   <v>       0.00166667 </v>
   <v>       0.00166667 </v>
   <v>       0.00166667 </v>
   <v>       0.00166667 </v>
   <v>       0.00166667 </v>
   <v>       0.00166667 </v>
   <v>       0.00166667 </v>
   <v>       0.00166667 </v>
   <v>       0.00166667 </v>
   <v>       0.00166667 </v>
   <v>       0.00166667 </v>
   <v>       0.00166667 </v>
   <v>       0.00166667 </v>
   <v>       0.00166667 </v>
   <v>       0.00166667 </v>
   <v>       0.00166667 </v>
   <v>       0.00166667 </v>
   <v>       0.00166667 </v>
   <v>       0.00166667 </v>
   <v>       0.00166667 </v>
   <v>       0.00166667 </v>
   <v>       0.00166667 </v>
   <v>       0.00166667 </v>
   <v>       0.00166667 </v>
   <v>       0.00166667 </v>
   <v>       0.00166667 </v>
   <v>       0.00166667 </v>
   <v>       0.00166667 </v>
   <v>       0.00166667 </v>
   <v>       0.00166667 </v>
   <v>       0.00166667 </v>
   <v>       0.00166667 </v>
   <v>       0.00166667 </v>
   <v>       0.00166667 </v>
   <v>       0.00166667 </v>
   <v>       0.00166667 </v>
   <v>       0.00166667 </v>
   <v>       0.00166667 </v>
   <v>       0.00166667 </v>
   <v>       0.00166667 </v>
   <v>       0.00166667 </v>
   <v>       0.00166667 </v>
   <v>       0.00166667 </v>
   <v>       0.00166667 </v>
   <v>       0.00166667 </v>
   <v>       0.00166667 </v>
   <v>       0.00166667 </v>
   <v>       0.00166667 </v>
   <v>       0.00166667 </v>
   <v>       0.00166667 </v>
   <v>       0.00166667 </v>
   <v>       0.00166667 </v>
   <v>       0.00166667 </v>
   <v>       0.00166667 </v>
   <v>       0.00166667 </v>
   <v>       0.00166667 </v>
   <v>       0.00166667 </v>
   <v>       0.00166667 </v>
   <v>       0.00166667 </v>
   <v>       0.00166667 </v>
   <v>       0.00166667 </v>
   <v>       0.00166667 </v>
   <v>       0.00166667 </v>
   <v>       0.00166667 </v>
   <v>       0.00166667 </v>
   <v>       0.00166667 </v>
   <v>       0.00166667 </v>
   <v>       0.00166667 </v>
   <v>       0.00166667 </v>
   <v>       0.00166667 </v>
   <v>       0.00166667 </v>
   <v>       0.00166667 </v>
   <v>       0.00166667 </v>
   <v>       0.00166667 </v>
   <v>       0.00166667 </v>
   <v>       0.00166667 </v>
   <v>       0.00166667 </v>
   <v>       0.00166667 </v>
   <v>       0.00166667 </v>
   <v>       0.00166667 </v>
   <v>       0.00166667 </v>
   <v>       0.00166667 </v>
   <v>       0.00166667 </v>
   <v>       0.00166667 </v>
   <v>       0.00166667 </v>
   <v>       0.00166667 </v>
   <v>       0.00166667 </v>
   <v>       0.00166667 </v>
   <v>       0.00166667 </v>
   <v>       0.00166667 </v>
   <v>       0.00166667 </v>
   <v>       0.00166667 </v>
   <v>       0.00166667 </v>
   <v>       0.00166667 </v>
   <v>       0.00166667 </v>
   <v>       0.00166667 </v>
   <v>       0.00166667 </v>
   <v>       0.00166667 </v>
   <v>       0.00166667 </v>
   <v>       0.00166667 </v>
   <v>       0.00166667 </v>
   <v>       0.00166667 </v>
   <v>       0.00166667 </v>
   <v>       0.00166667 </v>
   <v>       0.00166667 </v>
   <v>       0.00166667 </v>
   <v>       0.00166667 </v>
   <v>       0.00166667 </v>
   <v>       0.00166667 </v>
   <v>       0.00166667 </v>
   <v>       0.00166667 </v>
   <v>       0.00166667 </v>
   <v>       0.00166667 </v>
   <v>       0.00166667 </v>
   <v>       0.00166667 </v>
   <v>       0.00166667 </v>
   <v>       0.00166667 </v>
   <v>       0.00166667 </v>
   <v>       0.00166667 </v>
   <v>       0.00166667 </v>
   <v>       0.00166667 </v>
   <v>       0.00166667 </v>
   <v>       0.00166667 </v>
   <v>       0.00166667 </v>
   <v>       0.00166667 </v>
   <v>       0.00166667 </v>
   <v>       0.00166667 </v>
   <v>       0.00166667 </v>
   <v>       0.00166667 </v>
   <v>       0.00166667 </v>
   <v>       0.00166667 </v>
   <v>       0.00166667 </v>
   <v>       0.00166667 </v>
   <v>       0.00166667 </v>
   <v>       0.00166667 </v>
   <v>       0.00166667 </v>
   <v>       0.00166667 </v>
   <v>       0.00166667 </v>
   <v>       0.00166667 </v>
   <v>       0.00166667 </v>
   <v>       0.00166667 </v>
   <v>       0.00166667 </v>
   <v>       0.00166667 </v>
   <v>       0.00166667 </v>
   <v>       0.00166667 </v>
   <v>       0.00166667 </v>
   <v>       0.00166667 </v>
   <v>       0.00166667 </v>
   <v>       0.00166667 </v>
   <v>       0.00166667 </v>
   <v>       0.00166667 </v>
   <v>       0.00166667 </v>
   <v>       0.00166667 </v>
   <v>       0.00166667 </v>
   <v>       0.00166667 </v>
   <v>       0.00166667 </v>
   <v>       0.00166667 </v>
   <v>       0.00166667 </v>
   <v>       0.00166667 </v>
   <v>       0.00166667 </v>
   <v>       0.00166667 </v>
   <v>       0.00166667 </v>
   <v>       0.00166667 </v>
   <v>       0.00166667 </v>
   <v>       0.00166667 </v>
   <v>       0.00166667 </v>
   <v>       0.00166667 </v>
   <v>       0.00166667 </v>
   <v>       0.00166667 </v>
   <v>       0.00166667 </v>
   <v>       0.00166667 </v>
   <v>       0.00166667 </v>
   <v>       0.00166667 </v>
   <v>       0.00166667 </v>
   <v>       0.00166667 </v>
   <v>       0.00166667 </v>
   <v>       0.00166667 </v>
   <v>       0.00166667 </v>
   <v>       0.00166667 </v>
   <v>       0.00166667 </v>
   <v>       0.00166667 </v>
   <v>       0.00166667 </v>
   <v>       0.00166667 </v>
   <v>       0.00166667 </v>
   <v>       0.00166667 </v>
   <v>       0.00166667 </v>
   <v>       0.00166667 </v>
   <v>       0.00166667 </v>
   <v>       0.00166667 </v>
   <v>       0.00166667 </v>
   <v>       0.00166667 </v>
   <v>       0.00166667 </v>
   <v>       0.00166667 </v>
   <v>       0.00166667 </v>
   <v>       0.00166667 </v>
   <v>       0.00166667 </v>
   <v>       0.00166667 </v>
   <v>       0.00166667 </v>
   <v>       0.00166667 </v>
   <v>       0.00166667 </v>
   <v>       0.00166667 </v>
   <v>       0.00166667 </v>
   <v>       0.00166667 </v>
   <v>       0.00166667 </v>
   <v>       0.00166667 </v>
   <v>       0.00166667 </v>
   <v>       0.00166667 </v>
   <v>       0.00166667 </v>
   <v>       0.00166667 </v>
   <v>       0.00166667 </v>
   <v>       0.00166667 </v>
   <v>       0.00166667 </v>
   <v>       0.00166667 </v>
   <v>       0.00166667 </v>
   <v>       0.00166667 </v>
   <v>       0.00166667 </v>
   <v>       0.00166667 </v>
   <v>       0.00166667 </v>
   <v>       0.00166667 </v>
   <v>       0.00166667 </v>
   <v>       0.00166667 </v>
   <v>       0.00166667 </v>
   <v>       0.00166667 </v>
   <v>       0.00166667 </v>
   <v>       0.00166667 </v>
   <v>       0.00166667 </v>
   <v>       0.00166667 </v>
   <v>       0.00166667 </v>
   <v>       0.00166667 </v>
   <v>       0.00166667 </v>
   <v>       0.00166667 </v>
   <v>       0.00166667 </v>
   <v>       0.00166667 </v>
   <v>       0.00166667 </v>
   <v>       0.00166667 </v>
   <v>       0.00166667 </v>
   <v>       0.00166667 </v>
   <v>       0.00166667 </v>
   <v>       0.00166667 </v>
   <v>       0.00166667 </v>
   <v>       0.00166667 </v>
   <v>       0.00166667 </v>
   <v>       0.00166667 </v>
   <v>       0.00166667 </v>
   <v>       0.00166667 </v>
   <v>       0.00166667 </v>
   <v>       0.00166667 </v>
   <v>       0.00166667 </v>
   <v>       0.00166667 </v>
   <v>       0.00166667 </v>
   <v>       0.00166667 </v>
   <v>       0.00166667 </v>
   <v>       0.00166667 </v>
   <v>       0.00166667 </v>
   <v>       0.00166667 </v>
   <v>       0.00166667 </v>
   <v>       0.00166667 </v>
   <v>       0.00166667 </v>
   <v>       0.00166667 </v>
   <v>       0.00166667 </v>
   <v>       0.00166667 </v>
   <v>       0.00166667 </v>
   <v>       0.00166667 </v>
   <v>       0.00166667 </v>
   <v>       0.00166667 </v>
   <v>       0.00166667 </v>
   <v>       0.00166667 </v>
   <v>       0.00166667 </v>
   <v>       0.00166667 </v>
   <v>       0.00166667 </v>
   <v>       0.00166667 </v>
   <v>       0.00166667 </v>
   <v>       0.00166667 </v>
   <v>       0.00166667 </v>
   <v>       0.00166667 </v>
   <v>       0.00166667 </v>
   <v>       0.00166667 </v>
   <v>       0.00166667 </v>
   <v>       0.00166667 </v>
   <v>       0.00166667 </v>
   <v>       0.00166667 </v>
   <v>       0.00166667 </v>
   <v>       0.00166667 </v>
   <v>       0.00166667 </v>
   <v>       0.00166667 </v>
   <v>       0.00166667 </v>
   <v>       0.00166667 </v>
   <v>       0.00166667 </v>
   <v>       0.00166667 </v>
   <v>       0.00166667 </v>
   <v>       0.00166667 </v>
   <v>       0.00166667 </v>
   <v>       0.00166667 </v>
   <v>       0.00166667 </v>
   <v>       0.00166667 </v>
   <v>       0.00166667 </v>
   <v>       0.00166667 </v>
   <v>       0.00166667 </v>
   <v>       0.00166667 </v>
   <v>       0.00166667 </v>
   <v>       0.00166667 </v>
   <v>       0.00166667 </v>
   <v>       0.00166667 </v>
   <v>       0.00166667 </v>
   <v>       0.00166667 </v>
   <v>       0.00166667 </v>
   <v>       0.00166667 </v>
   <v>       0.00166667 </v>
   <v>       0.00166667 </v>
   <v>       0.00166667 </v>
   <v>       0.00166667 </v>
   <v>       0.00166667 </v>
   <v>       0.00166667 </v>
   <v>       0.00166667 </v>
   <v>       0.00166667 </v>
   <v>       0.00166667 </v>
   <v>       0.00166667 </v>
   <v>       0.00166667 </v>
   <v>       0.00166667 </v>
   <v>       0.00166667 </v>
   <v>       0.00166667 </v>
   <v>       0.00166667 </v>
   <v>       0.00166667 </v>
   <v>       0.00166667 </v>
   <v>       0.00166667 </v>
   <v>       0.00166667 </v>
   <v>       0.00166667 </v>
   <v>       0.00166667 </v>
   <v>       0.00166667 </v>
   <v>       0.00166667 </v>
   <v>       0.00166667 </v>
   <v>       0.00166667 </v>
   <v>       0.00166667 </v>
   <v>       0.00166667 </v>
   <v>       0.00166667 </v>
   <v>       0.00166667 </v>
   <v>       0.00166667 </v>
   <v>       0.00166667 </v>
   <v>       0.00166667 </v>
   <v>       0.00166667 </v>
   <v>       0.00166667 </v>
   <v>       0.00166667 </v>
   <v>       0.00166667 </v>
   <v>       0.00166667 </v>
   <v>       0.00166667 </v>
   <v>       0.00166667 </v>
   <v>       0.00166667 </v>
   <v>       0.00166667 </v>
   <v>       0.00166667 </v>
   <v>       0.00166667 </v>
   <v>       0.00166667 </v>
   <v>       0.00166667 </v>
   <v>       0.00166667 </v>
   <v>       0.00166667 </v>
   <v>       0.00166667 </v>
   <v>       0.00166667 </v>
   <v>       0.00166667 </v>
   <v>       0.00166667 </v>
   <v>       0.00166667 </v>
   <v>       0.00166667 </v>
   <v>       0.00166667 </v>
   <v>       0.00166667 </v>
   <v>       0.00166667 </v>
   <v>       0.00166667 </v>
   <v>       0.00166667 </v>
   <v>       0.00166667 </v>
   <v>       0.00166667 </v>
   <v>       0.00166667 </v>
   <v>       0.00166667 </v>
   <v>       0.00166667 </v>
   <v>       0.00166667 </v>
   <v>       0.00166667 </v>
   <v>       0.00166667 </v>
   <v>       0.00166667 </v>
   <v>       0.00166667 </v>
   <v>       0.00166667 </v>
   <v>       0.00166667 </v>
   <v>       0.00166667 </v>
   <v>       0.00166667 </v>
   <v>       0.00166667 </v>
   <v>       0.00166667 </v>
   <v>       0.00166667 </v>
   <v>       0.00166667 </v>
   <v>       0.00166667 </v>
   <v>       0.00166667 </v>
   <v>       0.00166667 </v>
   <v>       0.00166667 </v>
   <v>       0.00166667 </v>
   <v>       0.00166667 </v>
   <v>       0.00166667 </v>
   <v>       0.00166667 </v>
   <v>       0.00166667 </v>
   <v>       0.00166667 </v>
   <v>       0.00166667 </v>
   <v>       0.00166667 </v>
   <v>       0.00166667 </v>
   <v>       0.00166667 </v>
   <v>       0.00166667 </v>
   <v>       0.00166667 </v>
   <v>       0.00166667 </v>
   <v>       0.00166667 </v>
   <v>       0.00166667 </v>
   <v>       0.00166667 </v>
   <v>       0.00166667 </v>
   <v>       0.00166667 </v>
   <v>       0.00166667 </v>
   <v>       0.00166667 </v>
   <v>       0.00166667 </v>
   <v>       0.00166667 </v>
   <v>       0.00166667 </v>
   <v>       0.00166667 </v>
   <v>       0.00166667 </v>
   <v>       0.00166667 </v>
   <v>       0.00166667 </v>
   <v>       0.00166667 </v>
   <v>       0.00166667 </v>
   <v>       0.00166667 </v>
   <v>       0.00166667 </v>
   <v>       0.00166667 </v>
   <v>       0.00166667 </v>
   <v>       0.00166667 </v>
   <v>       0.00166667 </v>
   <v>       0.00166667 </v>
   <v>       0.00166667 </v>
   <v>       0.00166667 </v>
   <v>       0.00166667 </v>
   <v>       0.00166667 </v>
   <v>       0.00166667 </v>
   <v>       0.00166667 </v>
   <v>       0.00166667 </v>
   <v>       0.00166667 </v>
   <v>       0.00166667 </v>
   <v>       0.00166667 </v>
   <v>       0.00166667 </v>
   <v>       0.00166667 </v>
   <v>       0.00166667 </v>
   <v>       0.00166667 </v>
   <v>       0.00166667 </v>
   <v>       0.00166667 </v>
   <v>       0.00166667 </v>
   <v>       0.00166667 </v>
   <v>       0.00166667 </v>
   <v>       0.00166667 </v>
   <v>       0.00166667 </v>
   <v>       0.00166667 </v>
   <v>       0.00166667 </v>
   <v>       0.00166667 </v>
   <v>       0.00166667 </v>
   <v>       0.00166667 </v>
   <v>       0.00166667 </v>
   <v>       0.00166667 </v>
   <v>       0.00166667 </v>
   <v>       0.00166667 </v>
   <v>       0.00166667 </v>
   <v>       0.00166667 </v>
   <v>       0.00166667 </v>
   <v>       0.00166667 </v>
   <v>       0.00166667 </v>
   <v>       0.00166667 </v>
   <v>       0.00166667 </v>
   <v>       0.00166667 </v>
   <v>       0.00166667 </v>
   <v>       0.00166667 </v>
   <v>       0.00166667 </v>
   <v>       0.00166667 </v>
   <v>       0.00166667 </v>
   <v>       0.00166667 </v>
   <v>       0.00166667 </v>
   <v>       0.00166667 </v>
   <v>       0.00166667 </v>
   <v>       0.00166667 </v>
   <v>       0.00166667 </v>
   <v>       0.00166667 </v>
   <v>       0.00166667 </v>
   <v>       0.00166667 </v>
   <v>       0.00166667 </v>
   <v>       0.00166667 </v>
   <v>       0.00166667 </v>
   <v>       0.00166667 </v>
   <v>       0.00166667 </v>
   <v>       0.00166667 </v>
   <v>       0.00166667 </v>
   <v>       0.00166667 </v>
   <v>       0.00166667 </v>
   <v>       0.00166667 </v>
   <v>       0.00166667 </v>
   <v>       0.00166667 </v>
   <v>       0.00166667 </v>
   <v>       0.00166667 </v>
   <v>       0.00166667 </v>
   <v>       0.00166667 </v>
   <v>       0.00166667 </v>
   <v>       0.00166667 </v>
   <v>       0.00166667 </v>
   <v>       0.00166667 </v>
   <v>       0.00166667 </v>
   <v>       0.00166667 </v>
   <v>       0.00166667 </v>
   <v>       0.00166667 </v>
   <v>       0.00166667 </v>
   <v>       0.00166667 </v>
   <v>       0.00166667 </v>
   <v>       0.00166667 </v>
   <v>       0.00166667 </v>
   <v>       0.00166667 </v>
   <v>       0.00166667 </v>
   <v>       0.00166667 </v>
   <v>       0.00166667 </v>
   <v>       0.00166667 </v>
   <v>       0.00166667 </v>
   <v>       0.00166667 </v>
   <v>       0.00166667 </v>
   <v>       0.00166667 </v>
   <v>       0.00166667 </v>
   <v>       0.00166667 </v>
   <v>       0.00166667 </v>
   <v>       0.00166667 </v>
   <v>       0.00166667 </v>
   <v>       0.00166667 </v>
   <v>       0.00166667 </v>
   <v>       0.00166667 </v>
   <v>       0.00166667 </v>
   <v>       0.00166667 </v>
   <v>       0.00166667 </v>
   <v>       0.00166667 </v>
   <v>       0.00166667 </v>
   <v>       0.00166667 </v>
   <v>       0.00166667 </v>
   <v>       0.00166667 </v>
   <v>       0.00166667 </v>
   <v>       0.00166667 </v>
   <v>       0.00166667 </v>
   <v>       0.00166667 </v>
   <v>       0.00166667 </v>
   <v>       0.00166667 </v>
   <v>       0.00166667 </v>
   <v>       0.00166667 </v>
   <v>       0.00166667 </v>
   <v>       0.00166667 </v>
   <v>       0.00166667 </v>
   <v>       0.00166667 </v>
   <v>       0.00166667 </v>
   <v>       0.00166667 </v>
   <v>       0.00166667 </v>
   <v>       0.00166667 </v>
   <v>       0.00166667 </v>
   <v>       0.00166667 </v>
   <v>       0.00166667 </v>
   <v>       0.00166667 </v>
   <v>       0.00166667 </v>
   <v>       0.00166667 </v>
   <v>       0.00166667 </v>
   <v>       0.00166667 </v>
   <v>       0.00166667 </v>
   <v>       0.00166667 </v>
   <v>       0.00166667 </v>
   <v>       0.00166667 </v>
   <v>       0.00166667 </v>
   <v>       0.00166667 </v>
   <v>       0.00166667 </v>
   <v>       0.00166667 </v>
   <v>       0.00166667 </v>
   <v>       0.00166667 </v>
   <v>       0.00166667 </v>
   <v>       0.00166667 </v>
   <v>       0.00166667 </v>
   <v>       0.00166667 </v>
   <v>       0.00166667 </v>
   <v>       0.00166667 </v>
   <v>       0.00166667 </v>
   <v>       0.00166667 </v>
   <v>       0.00166667 </v>
   <v>       0.00166667 </v>
   <v>       0.00166667 </v>
   <v>       0.00166667 </v>
   <v>       0.00166667 </v>
   <v>       0.00166667 </v>
   <v>       0.00166667 </v>
   <v>       0.00166667 </v>
   <v>       0.00166667 </v>
   <v>       0.00166667 </v>
   <v>       0.00166667 </v>
  </varray>
 </kpoints>
 <parameters>
  <separator name="general" >
   <i type="string" name="SYSTEM">bulk	</i>
   <i type="logical" name="LCOMPAT"> F  </i>
  </separator>
  <separator name="electronic" >
   <i type="string" name="PREC">high</i>
   <i name="ENMAX">    500.00000000</i>
   <i name="ENAUG">    322.06900000</i>
   <i name="EDIFF">      0.00000100</i>
   <i type="int" name="IALGO">    38</i>
   <i type="int" name="IWAVPR">    10</i>
   <i type="int" name="NBANDS">    20</i>
   <i name="NELECT">      8.00000000</i>
   <i type="int" name="TURBO">     0</i>
   <i type="int" name="IRESTART">     0</i>
   <i type="int" name="NREBOOT">     0</i>
   <i type="int" name="NMIN">     0</i>
   <i name="EREF">      0.00000000</i>
   <separator name="electronic smearing" >
    <i type="int" name="ISMEAR">     0</i>
    <i name="SIGMA">      0.10000000</i>
    <i name="KSPACING">      0.50000000</i>
    <i type="logical" name="KGAMMA"> T  </i>
   </separator>
   <separator name="electronic projectors" >
    <i type="logical" name="LREAL"> F  </i>
    <v name="ROPT">      0.00000000</v>
    <i type="int" name="LMAXPAW">  -100</i>
    <i type="int" name="LMAXMIX">     2</i>
    <i type="logical" name="NLSPLINE"> F  </i>
   </separator>
   <separator name="electronic startup" >
    <i type="int" name="ISTART">     0</i>
    <i type="int" name="ICHARG">    11</i>
    <i type="int" name="INIWAV">     1</i>
   </separator>
   <separator name="electronic spin" >
    <i type="int" name="ISPIN">     1</i>
    <i type="logical" name="LNONCOLLINEAR"> F  </i>
    <v name="MAGMOM">      1.00000000      1.00000000</v>
    <i name="NUPDOWN">     -1.00000000</i>
    <i type="logical" name="LSORBIT"> F  </i>
    <v name="SAXIS">      0.00000000      0.00000000      1.00000000</v>
    <i type="logical" name="LSPIRAL"> F  </i>
    <v name="QSPIRAL">      0.00000000      0.00000000      0.00000000</v>
    <i type="logical" name="LZEROZ"> F  </i>
   </separator>
   <separator name="electronic exchange-correlation" >
    <i type="logical" name="LASPH"> F  </i>
    <i type="logical" name="LMETAGGA"> F  </i>
   </separator>
   <separator name="electronic convergence" >
    <i type="int" name="NELM">   100</i>
    <i type="int" name="NELMDL">     0</i>
    <i type="int" name="NELMIN">     8</i>
    <i name="ENINI">    500.00000000</i>
    <separator name="electronic convergence detail" >
     <i type="logical" name="LDIAG"> T  </i>
     <i type="logical" name="LSUBROT"> T  </i>
     <i name="WEIMIN">      0.00000000</i>
     <i name="EBREAK">      0.00000000</i>
     <i name="DEPER">      0.30000000</i>
     <i type="int" name="NRMM">     4</i>
     <i name="TIME">      0.40000000</i>
    </separator>
   </separator>
   <separator name="electronic mixer" >
    <i name="AMIX">      0.40000000</i>
    <i name="BMIX">      1.00000000</i>
    <i name="AMIN">      0.10000000</i>
    <i name="AMIX_MAG">      1.60000000</i>
    <i name="BMIX_MAG">      1.00000000</i>
    <separator name="electronic mixer details" >
     <i type="int" name="IMIX">     4</i>
     <i type="int" name="MAXMIX">   -45</i>
     <i name="WC">    100.00000000</i>
     <i type="int" name="INIMIX">     1</i>
     <i type="int" name="MIXPRE">     1</i>
     <i type="int" name="MREMOVE">     5</i>
    </separator>
   </separator>
   <separator name="electronic dipolcorrection" >
    <i type="logical" name="LDIPOL"> F  </i>
    <i type="logical" name="LMONO"> F  </i>
    <i type="int" name="IDIPOL">     0</i>
    <i name="EPSILON">      1.00000000</i>
    <v name="DIPOL">   -100.00000000   -100.00000000   -100.00000000</v>
    <i name="EFIELD">      0.00000000</i>
   </separator>
  </separator>
  <separator name="grids" >
   <i type="int" name="NGX">    28</i>
   <i type="int" name="NGY">    28</i>
   <i type="int" name="NGZ">    28</i>
   <i type="int" name="NGXF">    30</i>
   <i type="int" name="NGYF">    30</i>
   <i type="int" name="NGZF">    30</i>
   <i type="logical" name="ADDGRID"> F  </i>
  </separator>
  <separator name="ionic" >
   <i type="int" name="NSW">     0</i>
   <i type="int" name="IBRION">    -1</i>
   <i type="int" name="ISIF">     2</i>
   <i name="PSTRESS">      0.00000000</i>
   <i name="EDIFFG">      0.00000100</i>
   <i type="int" name="NFREE">     0</i>
   <i name="POTIM">      0.05000000</i>
   <i name="SMASS">     -3.00000000</i>
   <i name="SCALEE">      1.00000000</i>
  </separator>
  <separator name="ionic md" >
   <i name="TEBEG">      0.00010000</i>
   <i name="TEEND">      0.00010000</i>
   <i type="int" name="NBLOCK">     1</i>
   <i type="int" name="KBLOCK">     1</i>
   <i type="int" name="NPACO">   256</i>
   <i name="APACO">     16.00000000</i>
  </separator>
  <separator name="symmetry" >
   <i type="int" name="ISYM">     2</i>
   <i name="SYMPREC">      0.00001000</i>
  </separator>
  <separator name="dos" >
   <i type="logical" name="LORBIT"> F  </i>
   <v name="RWIGS">     -1.00000000</v>
   <i type="int" name="NEDOS">   301</i>
   <i name="EMIN">     10.00000000</i>
   <i name="EMAX">    -10.00000000</i>
   <i name="EFERMI">      0.00000000</i>
  </separator>
  <separator name="writing" >
   <i type="int" name="NWRITE">     2</i>
   <i type="logical" name="LWAVE"> F  </i>
   <i type="logical" name="LCHARG"> F  </i>
   <i type="logical" name="LPARD"> F  </i>
   <i type="logical" name="LVTOT"> F  </i>
   <i type="logical" name="LVHAR"> F  </i>
   <i type="logical" name="LELF"> F  </i>
   <i type="logical" name="LOPTICS"> F  </i>
   <v name="STM">      0.00000000      0.00000000      0.00000000      0.00000000      0.00000000      0.00000000      0.00000000</v>
  </separator>
  <separator name="performance" >
   <i type="int" name="NPAR">     1</i>
   <i type="int" name="NSIM">     4</i>
   <i type="int" name="NBLK">    -1</i>
   <i type="logical" name="LPLANE"> T  </i>
   <i type="logical" name="LSCALAPACK"> T  </i>
   <i type="logical" name="LSCAAWARE"> F  </i>
   <i type="logical" name="LSCALU"> F  </i>
   <i type="logical" name="LASYNC"> F  </i>
   <i type="logical" name="LORBITALREAL"> F  </i>
  </separator>
  <separator name="miscellaneous" >
   <i type="int" name="IDIOT">     3</i>
   <i type="logical" name="LMUSIC"> F  </i>
   <v name="POMASS">     28.08500000</v>
   <v name="DARWINR">      0.00000000</v>
   <v name="DARWINV">      1.00000000</v>
   <i type="logical" name="LCORR"> T  </i>
  </separator>
  <i type="logical" name="GGA_COMPAT"> T  </i>
  <i type="logical" name="LBERRY"> F  </i>
  <i type="int" name="ICORELEVEL">     0</i>
  <i type="logical" name="LDAU"> F  </i>
  <i type="int" name="I_CONSTRAINED_M">     0</i>
  <separator name="electronic exchange-correlation" >
   <i type="string" name="GGA">PE</i>
   <i type="int" name="VOSKOWN">     0</i>
   <i type="logical" name="LHFCALC"> F  </i>
   <i type="string" name="PRECFOCK"></i>
   <i type="logical" name="LSYMGRAD"> F  </i>
   <i type="logical" name="LHFONE"> F  </i>
   <i type="logical" name="LRHFCALC"> F  </i>
   <i type="logical" name="LTHOMAS"> F  </i>
   <i type="logical" name="LMODELHF"> F  </i>
   <i name="ENCUT4O">     -1.00000000</i>
   <i type="int" name="EXXOEP">     0</i>
   <i type="int" name="FOURORBIT">     0</i>
   <i name="AEXX">      0.00000000</i>
   <i name="HFALPHA">      0.00000000</i>
   <i name="MCALPHA">      0.00000000</i>
   <i name="ALDAX">      1.00000000</i>
   <i name="AGGAX">      1.00000000</i>
   <i name="ALDAC">      1.00000000</i>
   <i name="AGGAC">      1.00000000</i>
   <i type="int" name="NKREDX">     1</i>
   <i type="int" name="NKREDY">     1</i>
   <i type="int" name="NKREDZ">     1</i>
   <i type="logical" name="SHIFTRED"> F  </i>
   <i type="logical" name="ODDONLY"> F  </i>
   <i type="logical" name="EVENONLY"> F  </i>
   <i type="int" name="LMAXFOCK">     0</i>
   <i type="int" name="NMAXFOCKAE">     0</i>
   <i type="logical" name="LFOCKAEDFT"> F  </i>
   <i name="HFSCREEN">      0.00000000</i>
   <i name="HFSCREENC">      0.00000000</i>
   <i type="int" name="NBANDSGWLOW">     0</i>
  </separator>
  <separator name="vdW DFT" >
   <i type="logical" name="LUSE_VDW"> F  </i>
   <i name="Zab_VDW">     -0.84910000</i>
   <i name="PARAM1">      0.12340000</i>
   <i name="PARAM2">      1.00000000</i>
   <i name="PARAM3">      0.00000000</i>
  </separator>
  <separator name="model GW" >
   <i type="int" name="MODEL_GW">     0</i>
   <i name="MODEL_EPS0">     12.26643402</i>
   <i name="MODEL_ALPHA">      1.00000000</i>
  </separator>
  <separator name="linear response parameters" >
   <i type="logical" name="LEPSILON"> F  </i>
   <i type="logical" name="LRPA"> F  </i>
   <i type="logical" name="LNABLA"> F  </i>
   <i type="logical" name="LVEL"> F  </i>
   <i type="int" name="KINTER">     0</i>
   <i name="CSHIFT">      0.10000000</i>
   <i name="OMEGAMAX">     -1.00000000</i>
   <i name="DEG_THRESHOLD">      0.00200000</i>
  </separator>
  <separator name="orbital magnetization" >
   <i type="logical" name="NUCIND"> F  </i>
   <v name="MAGPOS">      0.00000000      0.00000000      0.00000000</v>
   <i type="logical" name="LNICSALL"> T  </i>
   <i type="logical" name="ORBITALMAG"> F  </i>
   <i type="logical" name="LMAGBLOCH"> F  </i>
   <i type="logical" name="LCHIMAG"> F  </i>
   <i type="logical" name="LGAUGE"> T  </i>
   <i type="int" name="MAGATOM">     0</i>
   <v name="MAGDIPOL">      0.00000000      0.00000000      0.00000000</v>
   <v name="AVECCONST">      0.00000000      0.00000000      0.00000000</v>
  </separator>
  <separator name="response functions" >
   <i type="logical" name="LADDER"> F  </i>
   <i type="logical" name="LFXC"> F  </i>
   <i type="logical" name="LHARTREE"> T  </i>
   <i type="int" name="IBSE">     0</i>
   <i type="logical" name="LTCTE"> F  </i>
   <i type="logical" name="LTETE"> F  </i>
   <i type="logical" name="LTRIPLET"> F  </i>
   <i type="logical" name="LFXCEPS"> F  </i>
   <i type="logical" name="L2ORDER"> F  </i>
   <i type="logical" name="LUSEW"> F  </i>
   <i name="ENCUTGW">     -2.00000000</i>
   <i name="ENCUTGWSOFT">     -2.00000000</i>
   <i name="ENCUTLF">     -1.00000000</i>
   <i type="int" name="LMAXMP2">    -1</i>
   <i name="SCISSOR">      0.00000000</i>
   <i type="int" name="NOMEGA">     0</i>
   <i type="int" name="NOMEGAR">     0</i>
   <i type="int" name="NBANDSGW">    -1</i>
   <i type="int" name="NBANDSO">    -1</i>
   <i type="int" name="NBANDSV">    -1</i>
   <i type="int" name="NELM">   100</i>
   <i type="int" name="DIM">     3</i>
   <i type="int" name="ANTIRES">     0</i>
   <i name="OMEGAMAX">    -30.00000000</i>
   <i name="OMEGATL">   -200.00000000</i>
   <i type="int" name="OMEGAGRID">     0</i>
   <i name="CSHIFT">     -0.10000000</i>
   <i type="logical" name="SELFENERGY"> F  </i>
   <i type="logical" name="LSPECTRAL"> F  </i>
   <i type="logical" name="ODDONLYGW"> F  </i>
   <i type="logical" name="EVENONLYGW"> F  </i>
   <i type="int" name="NKREDLFX">     1</i>
   <i type="int" name="NKREDLFY">     1</i>
   <i type="int" name="NKREDLFZ">     1</i>
   <i type="int" name="MAXMEM">  1800</i>
   <i type="int" name="TELESCOPE">     0</i>
  </separator>
 </parameters>
 <atominfo>
  <atoms>       2 </atoms>
  <types>       1 </types>
  <array name="atoms" >
   <dimension dim="1">ion</dimension>
   <field type="string">element</field>
   <field type="int">atomtype</field>
   <set>
    <rc><c>Si</c><c>   1</c></rc>
    <rc><c>Si</c><c>   1</c></rc>
   </set>
  </array>
  <array name="atomtypes" >
   <dimension dim="1">type</dimension>
   <field type="int">atomspertype</field>
   <field type="string">element</field>
   <field>mass</field>
   <field>valence</field>
   <field type="string">pseudopotential</field>
   <set>
    <rc><c>   2</c><c>Si</c><c>     28.08500000</c><c>      4.00000000</c><c>  PAW_PBE Si 05Jan2001                  </c></rc>
   </set>
  </array>
 </atominfo>
 <structure name="initialpos" >
  <crystal>
   <varray name="basis" >
    <v>       0.00000000       2.73436000       2.73436000 </v>
    <v>       2.73436000       0.00000000       2.73436000 </v>
    <v>       2.73436000       2.73436000       0.00000000 </v>
   </varray>
   <i name="volume">     40.88811341 </i>
   <varray name="rec_basis" >
    <v>      -0.18285815       0.18285815       0.18285815 </v>
    <v>       0.18285815      -0.18285815       0.18285815 </v>
    <v>       0.18285815       0.18285815      -0.18285815 </v>
   </varray>
  </crystal>
  <varray name="positions" >
   <v>       0.00000000       0.00000000       0.00000000 </v>
   <v>       0.25000000       0.25000000       0.25000000 </v>
  </varray>
 </structure>
 <calculation>
  <scstep>
   <time name="dav">    4.41    4.56</time>
   <time name="total">    4.44    4.65</time>
   <energy>
    <i name="alphaZ">      3.29319482 </i>
    <i name="ewald">   -226.94523405 </i>
    <i name="hartreedc">    -15.17067378 </i>
    <i name="XCdc">    -18.06039216 </i>
    <i name="pawpsdc">    829.54265742 </i>
    <i name="pawaedc">   -794.56149267 </i>
    <i name="eentropy">     -0.00430686 </i>
    <i name="bandstr">     24.20430784 </i>
    <i name="atom">    206.13251344 </i>
    <i name="e_fr_energy">      8.43057400 </i>
    <i name="e_wo_entrp">      8.43488087 </i>
    <i name="e_0_energy">      8.43272744 </i>
   </energy>
  </scstep>
  <scstep>
   <time name="dav">    5.30    5.32</time>
   <time name="total">    5.32    5.34</time>
   <energy>
    <i name="e_fr_energy">     -8.91358046 </i>
    <i name="e_wo_entrp">     -8.91341501 </i>
    <i name="e_0_energy">     -8.91349774 </i>
   </energy>
  </scstep>
  <scstep>
   <time name="dav">    5.18    5.20</time>
   <time name="total">    5.21    5.22</time>
   <energy>
    <i name="e_fr_energy">     -9.41294485 </i>
    <i name="e_wo_entrp">     -9.41294455 </i>
    <i name="e_0_energy">     -9.41294470 </i>
   </energy>
  </scstep>
  <scstep>
   <time name="dav">    5.16    5.17</time>
   <time name="total">    5.18    5.20</time>
   <energy>
    <i name="e_fr_energy">     -9.41536769 </i>
    <i name="e_wo_entrp">     -9.41536739 </i>
    <i name="e_0_energy">     -9.41536754 </i>
   </energy>
  </scstep>
  <scstep>
   <time name="dav">    5.11    5.12</time>
   <time name="total">    5.13    5.14</time>
   <energy>
    <i name="e_fr_energy">     -9.41538019 </i>
    <i name="e_wo_entrp">     -9.41537988 </i>
    <i name="e_0_energy">     -9.41538003 </i>
   </energy>
  </scstep>
  <scstep>
   <time name="dav">    5.24    5.25</time>
   <time name="total">    5.26    5.28</time>
   <energy>
    <i name="e_fr_energy">     -9.41538028 </i>
    <i name="e_wo_entrp">     -9.41537998 </i>
    <i name="e_0_energy">     -9.41538013 </i>
   </energy>
  </scstep>
  <scstep>
   <time name="dav">    4.69    4.70</time>
   <time name="total">    4.71    4.72</time>
   <energy>
    <i name="e_fr_energy">     -9.41538028 </i>
    <i name="e_wo_entrp">     -9.41537998 </i>
    <i name="e_0_energy">     -9.41538013 </i>
   </energy>
  </scstep>
  <scstep>
   <time name="dav">    4.46    4.47</time>
   <time name="total">    4.48    4.49</time>
   <energy>
    <i name="alphaZ">      3.29319482 </i>
    <i name="ewald">   -226.94523405 </i>
    <i name="hartreedc">    -15.17067378 </i>
    <i name="XCdc">    -18.06039216 </i>
    <i name="pawpsdc">    829.54265742 </i>
    <i name="pawaedc">   -794.56149267 </i>
    <i name="eentropy">     -0.00000031 </i>
    <i name="bandstr">      6.35404700 </i>
    <i name="atom">    206.13251344 </i>
    <i name="e_fr_energy">     -9.41538029 </i>
    <i name="e_wo_entrp">     -9.41537998 </i>
    <i name="e_0_energy">     -9.41538013 </i>
   </energy>
  </scstep>
  <structure>
   <crystal>
    <varray name="basis" >
     <v>       0.00000000       2.73436000       2.73436000 </v>
     <v>       2.73436000       0.00000000       2.73436000 </v>
     <v>       2.73436000       2.73436000       0.00000000 </v>
    </varray>
    <i name="volume">     40.88811341 </i>
    <varray name="rec_basis" >
     <v>      -0.18285815       0.18285815       0.18285815 </v>
     <v>       0.18285815      -0.18285815       0.18285815 </v>
     <v>       0.18285815       0.18285815      -0.18285815 </v>
    </varray>
   </crystal>
   <varray name="positions" >
    <v>       0.00000000       0.00000000       0.00000000 </v>
    <v>       0.25000000       0.25000000       0.25000000 </v>
   </varray>
  </structure>
  <varray name="forces" >
   <v>      -0.00000000      -0.00000000      -0.00000000 </v>
   <v>       0.00000000       0.00000000       0.00000000 </v>
  </varray>
  <varray name="stress" >
   <v>      49.84176773      -0.00000000      -0.00000000 </v>
   <v>       0.00000000      49.84176773       0.00000000 </v>
   <v>      -0.00000000       0.00000000      49.84176773 </v>
  </varray>
  <energy>
   <i name="e_fr_energy">     -9.41538029 </i>
   <i name="e_wo_entrp">     -9.41538013 </i>
   <i name="e_0_energy">     -0.00000031 </i>
  </energy>
  <time name="totalsc">   40.81   41.16</time>
  <eigenvalues>
   <array>
    <dimension dim="1">band</dimension>
    <dimension dim="2">kpoint</dimension>
    <dimension dim="3">spin</dimension>
    <field>eigene</field>
    <field>occ</field>
    <set>
     <set comment="spin 1">
      <set comment="kpoint 1">
       <r>   -6.1988    1.0000 </r>
       <r>    5.6158    1.0000 </r>
       <r>    5.6158    1.0000 </r>
       <r>    5.6158    1.0000 </r>
       <r>    8.1728    0.0000 </r>
       <r>    8.1729    0.0000 </r>
       <r>    8.1729    0.0000 </r>
       <r>    8.7497    0.0000 </r>
       <r>   13.3252    0.0000 </r>
       <r>   13.3252    0.0000 </r>
       <r>   13.4937    0.0000 </r>
       <r>   16.7984    0.0000 </r>
       <r>   16.7984    0.0000 </r>
       <r>   16.7984    0.0000 </r>
       <r>   20.8902    0.0000 </r>
       <r>   28.4702    0.0000 </r>
       <r>   28.4702    0.0000 </r>
       <r>   28.4702    0.0000 </r>
       <r>   29.5513    0.0000 </r>
       <r>   29.5516    0.0000 </r>
      </set>
      <set comment="kpoint 2">
       <r>   -6.1984    1.0000 </r>
       <r>    5.6126    1.0000 </r>
       <r>    5.6139    1.0000 </r>
       <r>    5.6139    1.0000 </r>
       <r>    8.1718    0.0000 </r>
       <r>    8.1753    0.0000 </r>
       <r>    8.1753    0.0000 </r>
       <r>    8.7529    0.0000 </r>
       <r>   13.3215    0.0000 </r>
       <r>   13.3257    0.0000 </r>
       <r>   13.4957    0.0000 </r>
       <r>   16.7992    0.0000 </r>
       <r>   16.7992    0.0000 </r>
       <r>   16.8010    0.0000 </r>
       <r>   20.8935    0.0000 </r>
       <r>   28.4627    0.0000 </r>
       <r>   28.4627    0.0000 </r>
       <r>   28.4708    0.0000 </r>
       <r>   29.5454    0.0000 </r>
       <r>   29.5469    0.0000 </r>
      </set>
      <set comment="kpoint 3">
       <r>   -6.1971    1.0000 </r>
       <r>    5.6029    1.0000 </r>
       <r>    5.6082    1.0000 </r>
       <r>    5.6082    1.0000 </r>
       <r>    8.1685    0.0000 </r>
       <r>    8.1826    0.0000 </r>
       <r>    8.1826    0.0000 </r>
       <r>    8.7624    0.0000 </r>
       <r>   13.3105    0.0000 </r>
       <r>   13.3271    0.0000 </r>
       <r>   13.5016    0.0000 </r>
       <r>   16.8015    0.0000 </r>
       <r>   16.8015    0.0000 </r>
       <r>   16.8087    0.0000 </r>
       <r>   20.9031    0.0000 </r>
       <r>   28.4402    0.0000 </r>
       <r>   28.4402    0.0000 </r>
       <r>   28.4725    0.0000 </r>
       <r>   29.5279    0.0000 </r>
       <r>   29.5336    0.0000 </r>
      </set>
      <set comment="kpoint 4">
       <r>   -6.1949    1.0000 </r>
       <r>    5.5870    1.0000 </r>
       <r>    5.5988    1.0000 </r>
       <r>    5.5989    1.0000 </r>
       <r>    8.1630    0.0000 </r>
       <r>    8.1947    0.0000 </r>
       <r>    8.1947    0.0000 </r>
       <r>    8.7780    0.0000 </r>
       <r>   13.2924    0.0000 </r>
       <r>   13.3295    0.0000 </r>
       <r>   13.5114    0.0000 </r>
       <r>   16.8053    0.0000 </r>
       <r>   16.8053    0.0000 </r>
       <r>   16.8215    0.0000 </r>
       <r>   20.9191    0.0000 </r>
       <r>   28.4037    0.0000 </r>
       <r>   28.4037    0.0000 </r>
       <r>   28.4753    0.0000 </r>
       <r>   29.4990    0.0000 </r>
       <r>   29.5121    0.0000 </r>
      </set>
      <set comment="kpoint 5">
       <r>   -6.1918    1.0000 </r>
       <r>    5.5650    1.0000 </r>
       <r>    5.5858    1.0000 </r>
       <r>    5.5859    1.0000 </r>
       <r>    8.1554    0.0000 </r>
       <r>    8.2115    0.0000 </r>
       <r>    8.2115    0.0000 </r>
       <r>    8.7995    0.0000 </r>
       <r>   13.2674    0.0000 </r>
       <r>   13.3330    0.0000 </r>
       <r>   13.5251    0.0000 </r>
       <r>   16.8107    0.0000 </r>
       <r>   16.8107    0.0000 </r>
       <r>   16.8390    0.0000 </r>
       <r>   20.9416    0.0000 </r>
       <r>   28.3537    0.0000 </r>
       <r>   28.3538    0.0000 </r>
       <r>   28.4792    0.0000 </r>
       <r>   29.4590    0.0000 </r>
       <r>   29.4825    0.0000 </r>
      </set>
      <set comment="kpoint 6">
       <r>   -6.1879    1.0000 </r>
       <r>    5.5371    1.0000 </r>
       <r>    5.5694    1.0000 </r>
       <r>    5.5694    1.0000 </r>
       <r>    8.1457    0.0000 </r>
       <r>    8.2328    0.0000 </r>
       <r>    8.2328    0.0000 </r>
       <r>    8.8268    0.0000 </r>
       <r>   13.2358    0.0000 </r>
       <r>   13.3373    0.0000 </r>
       <r>   13.5427    0.0000 </r>
       <r>   16.8176    0.0000 </r>
       <r>   16.8176    0.0000 </r>
       <r>   16.8610    0.0000 </r>
       <r>   20.9704    0.0000 </r>
       <r>   28.2918    0.0000 </r>
       <r>   28.2918    0.0000 </r>
       <r>   28.4843    0.0000 </r>
       <r>   29.4087    0.0000 </r>
       <r>   29.4458    0.0000 </r>
      </set>
      <set comment="kpoint 7">
       <r>   -6.1830    1.0000 </r>
       <r>    5.5037    1.0000 </r>
       <r>    5.5497    1.0000 </r>
       <r>    5.5497    1.0000 </r>
       <r>    8.1339    0.0000 </r>
       <r>    8.2585    0.0000 </r>
       <r>    8.2585    0.0000 </r>
       <r>    8.8593    0.0000 </r>
       <r>   13.1982    0.0000 </r>
       <r>   13.3427    0.0000 </r>
       <r>   13.5641    0.0000 </r>
       <r>   16.8261    0.0000 </r>
       <r>   16.8261    0.0000 </r>
       <r>   16.8872    0.0000 </r>
       <r>   21.0054    0.0000 </r>
       <r>   28.2190    0.0000 </r>
       <r>   28.2190    0.0000 </r>
       <r>   28.4904    0.0000 </r>
       <r>   29.3485    0.0000 </r>
       <r>   29.4025    0.0000 </r>
      </set>
      <set comment="kpoint 8">
       <r>   -6.1773    1.0000 </r>
       <r>    5.4651    1.0000 </r>
       <r>    5.5268    1.0000 </r>
       <r>    5.5269    1.0000 </r>
       <r>    8.1201    0.0000 </r>
       <r>    8.2883    0.0000 </r>
       <r>    8.2883    0.0000 </r>
       <r>    8.8967    0.0000 </r>
[...]
       </set>
       <set comment="band 16">
        <r>  0.0092  0.0022  0.0019  0.0000  0.0000  0.0000  0.0000  0.0000  0.0000 </r>
        <r>  0.0092  0.0022  0.0019  0.0000  0.0000  0.0000  0.0000  0.0000  0.0000 </r>
       </set>
       <set comment="band 17">
        <r>  0.0020  0.0003  0.0125  0.0381  0.0000  0.0000  0.0000  0.0000  0.0000 </r>
        <r>  0.0020  0.0003  0.0125  0.0381  0.0000  0.0000  0.0000  0.0000  0.0000 </r>
       </set>
       <set comment="band 18">
        <r>  0.0020  0.0000  0.0335  0.0165  0.0000  0.0000  0.0000  0.0000  0.0000 </r>
        <r>  0.0020  0.0000  0.0335  0.0165  0.0000  0.0000  0.0000  0.0000  0.0000 </r>
       </set>
       <set comment="band 19">
        <r>  0.0002  0.0004  0.0109  0.0287  0.0000  0.0000  0.0000  0.0000  0.0000 </r>
        <r>  0.0002  0.0004  0.0109  0.0287  0.0000  0.0000  0.0000  0.0000  0.0000 </r>
       </set>
       <set comment="band 20">
        <r>  0.0006  0.0000  0.0321  0.0079  0.0000  0.0000  0.0000  0.0000  0.0000 </r>
        <r>  0.0006  0.0000  0.0321  0.0079  0.0000  0.0000  0.0000  0.0000  0.0000 </r>
       </set>
      </set>
      <set comment="kpoint 597">
       <set comment="band 1">
        <r>  0.1936  0.0433  0.0000  0.0000  0.0000  0.0000  0.0000  0.0000  0.0000 </r>
        <r>  0.1936  0.0433  0.0000  0.0000  0.0000  0.0000  0.0000  0.0000  0.0000 </r>
       </set>
       <set comment="band 2">
        <r>  0.1930  0.0445  0.0000  0.0000  0.0000  0.0000  0.0000  0.0000  0.0000 </r>
        <r>  0.1930  0.0445  0.0000  0.0000  0.0000  0.0000  0.0000  0.0000  0.0000 </r>
       </set>
       <set comment="band 3">
        <r>  0.0001  0.0002  0.0976  0.0968  0.0000  0.0000  0.0000  0.0000  0.0000 </r>
        <r>  0.0001  0.0002  0.0976  0.0968  0.0000  0.0000  0.0000  0.0000  0.0000 </r>
       </set>
       <set comment="band 4">
        <r>  0.0001  0.0002  0.0968  0.0976  0.0000  0.0000  0.0000  0.0000  0.0000 </r>
        <r>  0.0001  0.0002  0.0968  0.0976  0.0000  0.0000  0.0000  0.0000  0.0000 </r>
       </set>
       <set comment="band 5">
        <r>  0.0511  0.0364  0.0003  0.0004  0.0000  0.0000  0.0000  0.0000  0.0000 </r>
        <r>  0.0511  0.0363  0.0003  0.0004  0.0000  0.0000  0.0000  0.0000  0.0000 </r>
       </set>
       <set comment="band 6">
        <r>  0.0509  0.0358  0.0003  0.0003  0.0000  0.0000  0.0000  0.0000  0.0000 </r>
        <r>  0.0508  0.0358  0.0003  0.0003  0.0000  0.0000  0.0000  0.0000  0.0000 </r>
       </set>
       <set comment="band 7">
        <r>  0.0004  0.0005  0.1127  0.1228  0.0000  0.0000  0.0000  0.0000  0.0000 </r>
        <r>  0.0004  0.0005  0.1127  0.1228  0.0000  0.0000  0.0000  0.0000  0.0000 </r>
       </set>
       <set comment="band 8">
        <r>  0.0003  0.0003  0.1218  0.1159  0.0000  0.0000  0.0000  0.0000  0.0000 </r>
        <r>  0.0003  0.0003  0.1218  0.1159  0.0000  0.0000  0.0000  0.0000  0.0000 </r>
       </set>
       <set comment="band 9">
        <r>  0.0007  0.0023  0.0034  0.0078  0.0000  0.0000  0.0000  0.0000  0.0000 </r>
        <r>  0.0007  0.0023  0.0034  0.0078  0.0000  0.0000  0.0000  0.0000  0.0000 </r>
       </set>
       <set comment="band 10">
        <r>  0.0006  0.0021  0.0121  0.0013  0.0000  0.0000  0.0000  0.0000  0.0000 </r>
        <r>  0.0006  0.0021  0.0121  0.0013  0.0000  0.0000  0.0000  0.0000  0.0000 </r>
       </set>
       <set comment="band 11">
        <r>  0.0003  0.0011  0.0004  0.0007  0.0000  0.0000  0.0000  0.0000  0.0000 </r>
        <r>  0.0003  0.0011  0.0004  0.0007  0.0000  0.0000  0.0000  0.0000  0.0000 </r>
       </set>
       <set comment="band 12">
        <r>  0.0004  0.0014  0.0004  0.0007  0.0000  0.0000  0.0000  0.0000  0.0000 </r>
        <r>  0.0004  0.0014  0.0004  0.0007  0.0000  0.0000  0.0000  0.0000  0.0000 </r>
       </set>
       <set comment="band 13">
        <r>  0.0581  0.2022  0.0001  0.0008  0.0000  0.0000  0.0000  0.0000  0.0000 </r>
        <r>  0.0581  0.2022  0.0001  0.0008  0.0000  0.0000  0.0000  0.0000  0.0000 </r>
       </set>
       <set comment="band 14">
        <r>  0.0538  0.2050  0.0001  0.0009  0.0000  0.0000  0.0000  0.0000  0.0000 </r>
        <r>  0.0538  0.2050  0.0001  0.0009  0.0000  0.0000  0.0000  0.0000  0.0000 </r>
       </set>
       <set comment="band 15">
        <r>  0.0055  0.0027  0.0016  0.0000  0.0000  0.0000  0.0000  0.0000  0.0000 </r>
        <r>  0.0055  0.0027  0.0016  0.0000  0.0000  0.0000  0.0000  0.0000  0.0000 </r>
       </set>
       <set comment="band 16">
        <r>  0.0088  0.0023  0.0012  0.0000  0.0000  0.0000  0.0000  0.0000  0.0000 </r>
        <r>  0.0088  0.0023  0.0012  0.0000  0.0000  0.0000  0.0000  0.0000  0.0000 </r>
       </set>
       <set comment="band 17">
        <r>  0.0013  0.0002  0.0151  0.0366  0.0000  0.0000  0.0000  0.0000  0.0000 </r>
        <r>  0.0013  0.0002  0.0151  0.0366  0.0000  0.0000  0.0000  0.0000  0.0000 </r>
       </set>
       <set comment="band 18">
        <r>  0.0012  0.0000  0.0333  0.0181  0.0000  0.0000  0.0000  0.0000  0.0000 </r>
        <r>  0.0012  0.0000  0.0333  0.0181  0.0000  0.0000  0.0000  0.0000  0.0000 </r>
       </set>
       <set comment="band 19">
        <r>  0.0001  0.0002  0.0121  0.0279  0.0000  0.0000  0.0000  0.0000  0.0000 </r>
        <r>  0.0001  0.0002  0.0121  0.0279  0.0000  0.0000  0.0000  0.0000  0.0000 </r>
       </set>
       <set comment="band 20">
        <r>  0.0002  0.0000  0.0304  0.0098  0.0000  0.0000  0.0000  0.0000  0.0000 </r>
        <r>  0.0002  0.0000  0.0304  0.0098  0.0000  0.0000  0.0000  0.0000  0.0000 </r>
       </set>
      </set>
      <set comment="kpoint 598">
       <set comment="band 1">
        <r>  0.1934  0.0435  0.0000  0.0000  0.0000  0.0000  0.0000  0.0000  0.0000 </r>
        <r>  0.1935  0.0435  0.0000  0.0000  0.0000  0.0000  0.0000  0.0000  0.0000 </r>
       </set>
       <set comment="band 2">
        <r>  0.1931  0.0443  0.0000  0.0000  0.0000  0.0000  0.0000  0.0000  0.0000 </r>
        <r>  0.1931  0.0443  0.0000  0.0000  0.0000  0.0000  0.0000  0.0000  0.0000 </r>
       </set>
       <set comment="band 3">
        <r>  0.0000  0.0001  0.0976  0.0971  0.0000  0.0000  0.0000  0.0000  0.0000 </r>
        <r>  0.0000  0.0001  0.0976  0.0971  0.0000  0.0000  0.0000  0.0000  0.0000 </r>
       </set>
       <set comment="band 4">
        <r>  0.0000  0.0001  0.0971  0.0976  0.0000  0.0000  0.0000  0.0000  0.0000 </r>
        <r>  0.0000  0.0001  0.0971  0.0976  0.0000  0.0000  0.0000  0.0000  0.0000 </r>
       </set>
       <set comment="band 5">
        <r>  0.0511  0.0363  0.0001  0.0002  0.0000  0.0000  0.0000  0.0000  0.0000 </r>
        <r>  0.0512  0.0363  0.0001  0.0002  0.0000  0.0000  0.0000  0.0000  0.0000 </r>
       </set>
       <set comment="band 6">
        <r>  0.0510  0.0359  0.0001  0.0002  0.0000  0.0000  0.0000  0.0000  0.0000 </r>
        <r>  0.0510  0.0359  0.0001  0.0002  0.0000  0.0000  0.0000  0.0000  0.0000 </r>
       </set>
       <set comment="band 7">
        <r>  0.0002  0.0002  0.1159  0.1223  0.0000  0.0000  0.0000  0.0000  0.0000 </r>
        <r>  0.0002  0.0002  0.1159  0.1223  0.0000  0.0000  0.0000  0.0000  0.0000 </r>
       </set>
       <set comment="band 8">
        <r>  0.0001  0.0001  0.1216  0.1172  0.0000  0.0000  0.0000  0.0000  0.0000 </r>
        <r>  0.0001  0.0001  0.1216  0.1172  0.0000  0.0000  0.0000  0.0000  0.0000 </r>
       </set>
       <set comment="band 9">
        <r>  0.0003  0.0011  0.0038  0.0074  0.0000  0.0000  0.0000  0.0000  0.0000 </r>
        <r>  0.0003  0.0011  0.0038  0.0074  0.0000  0.0000  0.0000  0.0000  0.0000 </r>
       </set>
       <set comment="band 10">
        <r>  0.0003  0.0010  0.0093  0.0026  0.0000  0.0000  0.0000  0.0000  0.0000 </r>
        <r>  0.0003  0.0010  0.0093  0.0026  0.0000  0.0000  0.0000  0.0000  0.0000 </r>
       </set>
       <set comment="band 11">
        <r>  0.0001  0.0002  0.0002  0.0003  0.0000  0.0000  0.0000  0.0000  0.0000 </r>
        <r>  0.0001  0.0002  0.0002  0.0003  0.0000  0.0000  0.0000  0.0000  0.0000 </r>
       </set>
       <set comment="band 12">
        <r>  0.0001  0.0003  0.0002  0.0003  0.0000  0.0000  0.0000  0.0000  0.0000 </r>
        <r>  0.0001  0.0003  0.0002  0.0003  0.0000  0.0000  0.0000  0.0000  0.0000 </r>
       </set>
       <set comment="band 13">
        <r>  0.0582  0.2050  0.0000  0.0004  0.0000  0.0000  0.0000  0.0000  0.0000 </r>
        <r>  0.0582  0.2050  0.0000  0.0004  0.0000  0.0000  0.0000  0.0000  0.0000 </r>
       </set>
       <set comment="band 14">
        <r>  0.0553  0.2070  0.0000  0.0004  0.0000  0.0000  0.0000  0.0000  0.0000 </r>
        <r>  0.0553  0.2069  0.0000  0.0004  0.0000  0.0000  0.0000  0.0000  0.0000 </r>
       </set>
       <set comment="band 15">
        <r>  0.0062  0.0027  0.0007  0.0000  0.0000  0.0000  0.0000  0.0000  0.0000 </r>
        <r>  0.0062  0.0027  0.0007  0.0000  0.0000  0.0000  0.0000  0.0000  0.0000 </r>
       </set>
       <set comment="band 16">
        <r>  0.0084  0.0024  0.0006  0.0000  0.0000  0.0000  0.0000  0.0000  0.0000 </r>
        <r>  0.0084  0.0024  0.0006  0.0000  0.0000  0.0000  0.0000  0.0000  0.0000 </r>
       </set>
       <set comment="band 17">
        <r>  0.0006  0.0001  0.0186  0.0341  0.0000  0.0000  0.0000  0.0000  0.0000 </r>
        <r>  0.0006  0.0001  0.0186  0.0341  0.0000  0.0000  0.0000  0.0000  0.0000 </r>
       </set>
       <set comment="band 18">
        <r>  0.0006  0.0000  0.0323  0.0203  0.0000  0.0000  0.0000  0.0000  0.0000 </r>
        <r>  0.0006  0.0000  0.0323  0.0203  0.0000  0.0000  0.0000  0.0000  0.0000 </r>
       </set>
       <set comment="band 19">
        <r>  0.0000  0.0001  0.0139  0.0262  0.0000  0.0000  0.0000  0.0000  0.0000 </r>
        <r>  0.0000  0.0001  0.0139  0.0262  0.0000  0.0000  0.0000  0.0000  0.0000 </r>
       </set>
       <set comment="band 20">
        <r>  0.0001  0.0000  0.0276  0.0126  0.0000  0.0000  0.0000  0.0000  0.0000 </r>
        <r>  0.0001  0.0000  0.0276  0.0126  0.0000  0.0000  0.0000  0.0000  0.0000 </r>
       </set>
      </set>
      <set comment="kpoint 599">
       <set comment="band 1">
        <r>  0.1933  0.0437  0.0000  0.0000  0.0000  0.0000  0.0000  0.0000  0.0000 </r>
        <r>  0.1934  0.0437  0.0000  0.0000  0.0000  0.0000  0.0000  0.0000  0.0000 </r>
       </set>
       <set comment="band 2">
        <r>  0.1932  0.0441  0.0000  0.0000  0.0000  0.0000  0.0000  0.0000  0.0000 </r>
        <r>  0.1931  0.0441  0.0000  0.0000  0.0000  0.0000  0.0000  0.0000  0.0000 </r>
       </set>
       <set comment="band 3">
        <r>  0.0000  0.0000  0.0975  0.0974  0.0000  0.0000  0.0000  0.0000  0.0000 </r>
        <r>  0.0000  0.0000  0.0975  0.0974  0.0000  0.0000  0.0000  0.0000  0.0000 </r>
       </set>
       <set comment="band 4">
        <r>  0.0000  0.0000  0.0974  0.0975  0.0000  0.0000  0.0000  0.0000  0.0000 </r>
        <r>  0.0000  0.0000  0.0974  0.0975  0.0000  0.0000  0.0000  0.0000  0.0000 </r>
       </set>
       <set comment="band 5">
        <r>  0.0511  0.0363  0.0000  0.0000  0.0000  0.0000  0.0000  0.0000  0.0000 </r>
        <r>  0.0512  0.0363  0.0000  0.0000  0.0000  0.0000  0.0000  0.0000  0.0000 </r>
       </set>
       <set comment="band 6">
        <r>  0.0511  0.0361  0.0000  0.0000  0.0000  0.0000  0.0000  0.0000  0.0000 </r>
        <r>  0.0511  0.0361  0.0000  0.0000  0.0000  0.0000  0.0000  0.0000  0.0000 </r>
       </set>
       <set comment="band 7">
        <r>  0.0000  0.0000  0.1183  0.1212  0.0000  0.0000  0.0000  0.0000  0.0000 </r>
        <r>  0.0000  0.0000  0.1183  0.1213  0.0000  0.0000  0.0000  0.0000  0.0000 </r>
       </set>
       <set comment="band 8">
        <r>  0.0000  0.0000  0.1210  0.1186  0.0000  0.0000  0.0000  0.0000  0.0000 </r>
        <r>  0.0000  0.0000  0.1211  0.1186  0.0000  0.0000  0.0000  0.0000  0.0000 </r>
       </set>
       <set comment="band 9">
        <r>  0.0001  0.0003  0.0045  0.0067  0.0000  0.0000  0.0000  0.0000  0.0000 </r>
        <r>  0.0001  0.0003  0.0045  0.0067  0.0000  0.0000  0.0000  0.0000  0.0000 </r>
       </set>
       <set comment="band 10">
        <r>  0.0001  0.0003  0.0071  0.0041  0.0000  0.0000  0.0000  0.0000  0.0000 </r>
        <r>  0.0001  0.0003  0.0071  0.0041  0.0000  0.0000  0.0000  0.0000  0.0000 </r>
       </set>
       <set comment="band 11">
        <r>  0.0000  0.0000  0.0000  0.0001  0.0000  0.0000  0.0000  0.0000  0.0000 </r>
        <r>  0.0000  0.0000  0.0000  0.0001  0.0000  0.0000  0.0000  0.0000  0.0000 </r>
       </set>
       <set comment="band 12">
        <r>  0.0000  0.0000  0.0001  0.0001  0.0000  0.0000  0.0000  0.0000  0.0000 </r>
        <r>  0.0000  0.0000  0.0001  0.0001  0.0000  0.0000  0.0000  0.0000  0.0000 </r>
       </set>
       <set comment="band 13">
        <r>  0.0579  0.2066  0.0000  0.0001  0.0000  0.0000  0.0000  0.0000  0.0000 </r>
        <r>  0.0579  0.2066  0.0000  0.0001  0.0000  0.0000  0.0000  0.0000  0.0000 </r>
       </set>
       <set comment="band 14">
        <r>  0.0564  0.2076  0.0000  0.0001  0.0000  0.0000  0.0000  0.0000  0.0000 </r>
        <r>  0.0564  0.2076  0.0000  0.0001  0.0000  0.0000  0.0000  0.0000  0.0000 </r>
       </set>
       <set comment="band 15">
        <r>  0.0068  0.0026  0.0002  0.0000  0.0000  0.0000  0.0000  0.0000  0.0000 </r>
        <r>  0.0068  0.0026  0.0002  0.0000  0.0000  0.0000  0.0000  0.0000  0.0000 </r>
       </set>
       <set comment="band 16">
        <r>  0.0079  0.0025  0.0002  0.0000  0.0000  0.0000  0.0000  0.0000  0.0000 </r>
        <r>  0.0079  0.0025  0.0002  0.0000  0.0000  0.0000  0.0000  0.0000  0.0000 </r>
       </set>
       <set comment="band 17">
        <r>  0.0002  0.0000  0.0228  0.0307  0.0000  0.0000  0.0000  0.0000  0.0000 </r>
        <r>  0.0002  0.0000  0.0228  0.0307  0.0000  0.0000  0.0000  0.0000  0.0000 </r>
       </set>
       <set comment="band 18">
        <r>  0.0002  0.0000  0.0302  0.0233  0.0000  0.0000  0.0000  0.0000  0.0000 </r>
        <r>  0.0002  0.0000  0.0302  0.0233  0.0000  0.0000  0.0000  0.0000  0.0000 </r>
       </set>
       <set comment="band 19">
        <r>  0.0000  0.0000  0.0166  0.0236  0.0000  0.0000  0.0000  0.0000  0.0000 </r>
        <r>  0.0000  0.0000  0.0166  0.0236  0.0000  0.0000  0.0000  0.0000  0.0000 </r>
       </set>
       <set comment="band 20">
        <r>  0.0000  0.0000  0.0240  0.0162  0.0000  0.0000  0.0000  0.0000  0.0000 </r>
        <r>  0.0000  0.0000  0.0240  0.0162  0.0000  0.0000  0.0000  0.0000  0.0000 </r>
       </set>
      </set>
      <set comment="kpoint 600">
       <set comment="band 1">
        <r>  0.0141  0.0847  0.0000  0.0000  0.0000  0.0000  0.0000  0.0000  0.0000 </r>
        <r>  0.3724  0.0032  0.0000  0.0000  0.0000  0.0000  0.0000  0.0000  0.0000 </r>
       </set>
       <set comment="band 2">
        <r>  0.3724  0.0032  0.0000  0.0000  0.0000  0.0000  0.0000  0.0000  0.0000 </r>
        <r>  0.0141  0.0847  0.0000  0.0000  0.0000  0.0000  0.0000  0.0000  0.0000 </r>
       </set>
       <set comment="band 3">
        <r>  0.0000  0.0000  0.0975  0.0975  0.0000  0.0000  0.0000  0.0000  0.0000 </r>
        <r>  0.0000  0.0000  0.0975  0.0975  0.0000  0.0000  0.0000  0.0000  0.0000 </r>
       </set>
       <set comment="band 4">
        <r>  0.0000  0.0000  0.0975  0.0975  0.0000  0.0000  0.0000  0.0000  0.0000 </r>
        <r>  0.0000  0.0000  0.0975  0.0975  0.0000  0.0000  0.0000  0.0000  0.0000 </r>
       </set>
       <set comment="band 5">
        <r>  0.0063  0.0679  0.0000  0.0000  0.0000  0.0000  0.0000  0.0000  0.0000 </r>
        <r>  0.0960  0.0045  0.0000  0.0000  0.0000  0.0000  0.0000  0.0000  0.0000 </r>
       </set>
       <set comment="band 6">
        <r>  0.0960  0.0045  0.0000  0.0000  0.0000  0.0000  0.0000  0.0000  0.0000 </r>
        <r>  0.0063  0.0679  0.0000  0.0000  0.0000  0.0000  0.0000  0.0000  0.0000 </r>
       </set>
       <set comment="band 7">
        <r>  0.0000  0.0000  0.1200  0.1200  0.0000  0.0000  0.0000  0.0000  0.0000 </r>
        <r>  0.0000  0.0000  0.1200  0.1200  0.0000  0.0000  0.0000  0.0000  0.0000 </r>
       </set>
       <set comment="band 8">
        <r>  0.0000  0.0000  0.1200  0.1200  0.0000  0.0000  0.0000  0.0000  0.0000 </r>
        <r>  0.0000  0.0000  0.1200  0.1200  0.0000  0.0000  0.0000  0.0000  0.0000 </r>
       </set>
       <set comment="band 9">
        <r>  0.0000  0.0000  0.0055  0.0055  0.0000  0.0000  0.0000  0.0000  0.0000 </r>
        <r>  0.0000  0.0000  0.0055  0.0055  0.0000  0.0000  0.0000  0.0000  0.0000 </r>
       </set>
       <set comment="band 10">
        <r>  0.0000  0.0000  0.0055  0.0055  0.0000  0.0000  0.0000  0.0000  0.0000 </r>
        <r>  0.0000  0.0000  0.0055  0.0055  0.0000  0.0000  0.0000  0.0000  0.0000 </r>
       </set>
       <set comment="band 11">
        <r>  0.0000  0.0000  0.0000  0.0000  0.0000  0.0000  0.0000  0.0000  0.0000 </r>
        <r>  0.0000  0.0000  0.0000  0.0000  0.0000  0.0000  0.0000  0.0000  0.0000 </r>
       </set>
       <set comment="band 12">
        <r>  0.0000  0.0000  0.0000  0.0000  0.0000  0.0000  0.0000  0.0000  0.0000 </r>
        <r>  0.0000  0.0000  0.0000  0.0000  0.0000  0.0000  0.0000  0.0000  0.0000 </r>
       </set>
       <set comment="band 13">
        <r>  0.0984  0.0582  0.0000  0.0000  0.0000  0.0000  0.0000  0.0000  0.0000 </r>
        <r>  0.0161  0.3566  0.0000  0.0000  0.0000  0.0000  0.0000  0.0000  0.0000 </r>
       </set>
       <set comment="band 14">
        <r>  0.0161  0.3566  0.0000  0.0000  0.0000  0.0000  0.0000  0.0000  0.0000 </r>
        <r>  0.0984  0.0582  0.0000  0.0000  0.0000  0.0000  0.0000  0.0000  0.0000 </r>
       </set>
       <set comment="band 15">
        <r>  0.0111  0.0013  0.0000  0.0000  0.0000  0.0000  0.0000  0.0000  0.0000 </r>
        <r>  0.0038  0.0038  0.0000  0.0000  0.0000  0.0000  0.0000  0.0000  0.0000 </r>
       </set>
       <set comment="band 16">
        <r>  0.0038  0.0038  0.0000  0.0000  0.0000  0.0000  0.0000  0.0000  0.0000 </r>
        <r>  0.0111  0.0013  0.0000  0.0000  0.0000  0.0000  0.0000  0.0000  0.0000 </r>
       </set>
       <set comment="band 17">
        <r>  0.0000  0.0000  0.0269  0.0269  0.0000  0.0000  0.0000  0.0000  0.0000 </r>
        <r>  0.0000  0.0000  0.0269  0.0269  0.0000  0.0000  0.0000  0.0000  0.0000 </r>
       </set>
       <set comment="band 18">
        <r>  0.0000  0.0000  0.0269  0.0269  0.0000  0.0000  0.0000  0.0000  0.0000 </r>
        <r>  0.0000  0.0000  0.0269  0.0269  0.0000  0.0000  0.0000  0.0000  0.0000 </r>
       </set>
       <set comment="band 19">
        <r>  0.0000  0.0000  0.0200  0.0202  0.0000  0.0000  0.0000  0.0000  0.0000 </r>
        <r>  0.0000  0.0000  0.0202  0.0200  0.0000  0.0000  0.0000  0.0000  0.0000 </r>
       </set>
       <set comment="band 20">
        <r>  0.0000  0.0000  0.0202  0.0200  0.0000  0.0000  0.0000  0.0000  0.0000 </r>
        <r>  0.0000  0.0000  0.0200  0.0202  0.0000  0.0000  0.0000  0.0000  0.0000 </r>
       </set>
      </set>
     </set>
    </set>
   </array>
  </projected>
 </calculation>
 <structure name="finalpos" >
  <crystal>
   <varray name="basis" >
    <v>       0.00000000       2.73436000       2.73436000 </v>
    <v>       2.73436000       0.00000000       2.73436000 </v>
    <v>       2.73436000       2.73436000       0.00000000 </v>
   </varray>
   <i name="volume">     40.88811341 </i>
   <varray name="rec_basis" >
    <v>      -0.18285815       0.18285815       0.18285815 </v>
    <v>       0.18285815      -0.18285815       0.18285815 </v>
    <v>       0.18285815       0.18285815      -0.18285815 </v>
   </varray>
  </crystal>
  <varray name="positions" >
   <v>       0.00000000       0.00000000       0.00000000 </v>
   <v>       0.25000000       0.25000000       0.25000000 </v>
  </varray>
 </structure>
</modeling>
