    2    2    1    1
  0.2044406E+02  0.3866969E-09  0.3866969E-09  0.3866969E-09  0.5000000E-16
  1.000000000000000E-004
  CAR 
 bulk	                                   
    8  816   20
 
  0.0000000E+00  0.0000000E+00  0.0000000E+00  0.3356718E-04
   1       -6.198868
   2        5.615744
   3        5.615759
   4        5.615759
   5        8.172815
   6        8.172825
   7        8.172825
   8        8.749670
   9       13.325137
  10       13.325137
  11       13.493534
  12       16.798332
  13       16.798337
  14       16.798337
  15       20.890049
  16       28.470142
  17       28.470145
  18       28.470145
  19       29.551258
  20       29.551260
 
  0.3225806E-01  0.0000000E+00  0.0000000E+00  0.2685375E-03
   1       -6.185451
   2        5.456305
   3        5.592785
   4        5.592799
   5        8.205093
   6        8.206440
   7        8.206449
   8        8.853360
   9       13.277900
  10       13.277900
  11       13.553356
  12       16.742016
  13       16.889018
  14       16.889022
  15       20.986777
  16       28.291481
  17       28.333660
  18       28.333665
  19       29.426432
  20       29.426434
 
  0.6451613E-01  0.0000000E+00  0.0000000E+00  0.2685375E-03
   1       -6.145242
   2        5.054973
   3        5.528254
   4        5.528268
   5        8.210475
   6        8.301458
   7        8.301467
   8        9.181908
   9       13.153726
  10       13.153726
  11       13.726536
  12       16.592728
  13       17.144650
  14       17.144654
  15       21.259452
  16       27.850239
  17       27.881031
  18       27.881038
  19       29.266159
  20       29.266163
 
  0.9677419E-01  0.0000000E+00  0.0000000E+00  0.2685375E-03
   1       -6.078413
   2        4.529967
   3        5.432767
   4        5.432781
   5        8.147619
   6        8.442663
   7        8.442673
   8        9.666581
   9       12.992003
  10       12.992004
  11       13.992825
  12       16.398835
  13       17.529264
  14       17.529268
  15       21.668418
  16       27.176809
  17       27.176818
  18       27.281961
  19       29.209091
  20       29.209097
 
  0.1290323E+00  0.0000000E+00  0.0000000E+00  0.2685375E-03
   1       -5.985332
   2        3.951192
   3        5.318445
   4        5.318458
   5        8.044885
   6        8.609844
   7        8.609853
   8       10.219705
   9       12.833956
  10       12.833956
  11       14.309118
  12       16.227571
  13       18.007286
  14       18.007290
  15       22.170639
  16       26.356897
  17       26.356906
  18       26.664335
  19       29.213883
  20       29.213889
 
  0.1612903E+00  0.0000000E+00  0.0000000E+00  0.2685375E-03
   1       -5.866473
   2        3.352943
   3        5.195739
   4        5.195753
   5        7.922970
   6        8.780881
   7        8.780891
   8       10.797302
   9       12.714959
  10       12.714959
  11       14.584605
  12       16.183309
  13       18.550292
  14       18.550296
  15       22.720682
  16       25.498440
  17       25.498448
  18       26.049590
  19       29.248089
  20       29.248096
 
  0.1935484E+00  0.0000000E+00  0.0000000E+00  0.2685375E-03
   1       -5.722556
   2        2.753106
   3        5.072465
   4        5.072478
   5        7.794269
   6        8.933772
   7        8.933782
   8       11.378732
   9       12.664409
  10       12.664410
  11       14.693605
  12       16.396646
  13       19.133254
  14       19.133258
  15       23.239636
  16       24.644191
  17       24.644199
  18       25.517770
  19       29.296747
  20       29.296753
 
  0.2258065E+00  0.0000000E+00  0.0000000E+00  0.2685375E-03
   1       -5.554699
   2        2.162297
   3        4.954086
   4        4.954099
   5        7.666800
   6        9.049858
   7        9.049868
   8       11.951549
   9       12.704975
  10       12.704977
  11       14.634335
  12       16.869506
  13       19.723243
  14       19.723247
  15       23.508712
  16       23.833416
  17       23.833423
  18       25.289808
  19       29.349786
  20       29.349792
 
  0.2580645E+00  0.0000000E+00  0.0000000E+00  0.2685375E-03
   1       -5.364427
   2        1.587932
   3        4.844266
   4        4.844279
   5        7.545987
   6        9.118786
   7        9.118794
   8       12.500939
   9       12.849200
  10       12.849202
  11       14.516558
  12       17.492493
  13       20.247448
  14       20.247453
  15       23.141561
  16       23.141567
  17       23.287284
  18       25.612904
  19       29.397198
  20       29.397205
 
  0.2903226E+00  0.0000000E+00  0.0000000E+00  0.2685375E-03
   1       -5.154058
   2        1.036153
   3        4.745429
   4        4.745442
   5        7.435530
   6        9.141681
   7        9.141690
   8       12.991973
   9       13.097077
  10       13.097080
  11       14.438318
  12       18.178536
  13       20.505162
  14       20.505168
  15       22.769894
  16       22.769898
  17       22.810843
  18       26.268361
  19       29.425432
  20       29.425438
 
  0.3225806E+00  0.0000000E+00  0.0000000E+00  0.2685375E-03
   1       -4.927201
   2        0.513141
   3        4.659134
   4        4.659147
   5        7.337897
   6        9.129039
   7        9.129047
   8       13.336197
   9       13.438502
  10       13.438505
  11       14.515728
  12       18.846992
  13       20.254226
  14       20.254233
  15       22.332602
  16       22.960176
  17       22.960179
  18       27.047419
  19       29.413839
  20       29.413846
 
  0.3548387E+00  0.0000000E+00  0.0000000E+00  0.2685375E-03
   1       -4.689540
   2        0.026465
   3        4.586372
   4        4.586385
   5        7.254794
   6        9.095103
   7        9.095110
   8       13.455739
   9       13.858912
  10       13.858916
  11       14.838198
  12       19.352290
  13       19.665842
  14       19.665850
  15       22.045831
  16       23.539893
  17       23.539896
  18       27.875435
  19       29.330411
  20       29.330600
 
  0.3870968E+00  0.0000000E+00  0.0000000E+00  0.2685375E-03
   1       -4.450506
   2       -0.413109
   3        4.527733
   4        4.527746
   5        7.187328
   6        9.053172
   7        9.053179
   8       13.440185
   9       14.343680
  10       14.343684
  11       15.318641
  12       18.971888
  13       18.971896
  14       19.466227
  15       22.193049
  16       24.274990
  17       24.274992
  18       28.539509
  19       28.973359
  20       29.128484
 
  0.4193548E+00  0.0000000E+00  0.0000000E+00  0.2685375E-03
   1       -4.226040
   2       -0.788740
   3        4.483558
   4        4.483571
   5        7.136221
   6        9.013604
   7        9.013611
   8       13.390266
   9       14.879037
  10       14.879042
  11       15.849116
  12       18.260206
  13       18.260214
  14       19.190169
  15       22.783805
  16       25.074717
  17       25.074719
  18       27.655042
  19       28.759305
  20       28.759308
 
  0.4516129E+00  0.0000000E+00  0.0000000E+00  0.2685375E-03
   1       -4.042082
   2       -1.073824
   3        4.454037
   4        4.454049
   5        7.101933
   6        8.983582
   7        8.983588
   8       13.345959
   9       15.447390
  10       15.447395
  11       16.360559
  12       17.569468
  13       17.569476
  14       18.764886
  15       23.601395
  16       25.899931
  17       25.899933
  18       26.621851
  19       28.207923
  20       28.207924
 
  0.4838710E+00  0.0000000E+00  0.0000000E+00  0.2685375E-03
   1       -3.934586
   2       -1.231977
   3        4.439253
   4        4.439266
   5        7.084709
   6        8.967523
   7        8.967529
   8       13.321397
   9       15.984927
  10       15.984931
  11       16.737138
  12       16.969799
  13       16.969808
  14       18.414016
  15       24.483251
  16       25.648387
  17       26.719542
  18       26.719543
  19       27.513258
  20       27.513258
 
  0.3225806E-01  0.3225806E-01  0.0000000E+00  0.2014031E-03
   1       -6.180976
   2        5.489328
   3        5.541126
   4        5.541136
   5        8.128753
   6        8.269510
   7        8.269518
   8        8.873179
   9       13.182063
  10       13.345007
  11       13.573193
  12       16.829647
  13       16.829650
  14       16.898262
  15       21.020493
  16       28.188169
  17       28.188173
  18       28.493053
  19       29.322637
  20       29.384078
 
  0.6451613E-01  0.3225806E-01  0.0000000E+00  0.8056124E-03
   1       -6.149683
   2        5.176236
   3        5.452846
   4        5.519382
   5        8.122412
   6        8.338053
   7        8.389644
   8        9.108882
   9       13.017245
  10       13.319550
  11       13.708498
  12       16.728574
  13       16.950388
  14       17.151464
  15       21.238059
  16       27.782005
  17       27.795480
  18       28.367494
  19       29.110990
  20       29.184760
 
  0.9677419E-01  0.3225806E-01  0.0000000E+00  0.8056124E-03
   1       -6.091707
   2        4.691829
   3        5.340032
   4        5.466871
   5        8.160114
   6        8.347458
   7        8.550655
   8        9.539409
   9       12.823173
  10       13.223985
  11       13.944880
  12       16.542560
  13       17.232070
  14       17.548142
  15       21.604908
  16       27.113591
  17       27.208452
  18       27.918920
  19       29.002941
  20       29.072295
 
  0.1290323E+00  0.3225806E-01  0.0000000E+00  0.8056124E-03
   1       -6.007349
   2        4.133594
   3        5.214405
   4        5.379105
   5        8.139909
   6        8.411819
   7        8.733293
   8       10.060579
   9       12.639697
  10       13.100763
  11       14.250510
  12       16.351275
  13       17.637827
  14       18.034165
  15       22.078160
  16       26.305786
  17       26.513357
  18       27.278932
  19       28.977362
  20       29.068626
 
  0.1612903E+00  0.3225806E-01  0.0000000E+00  0.8056124E-03
   1       -5.897037
   2        3.544871
   3        5.085350
   4        5.268791
   5        8.045838
   6        8.551593
   7        8.917025
   8       10.606908
   9       12.504027
  10       12.993232
  11       14.557576
  12       16.240449
  13       18.131708
  14       18.583404
  15       22.614443
  16       25.446456
  17       25.760879
  18       26.593597
  19       28.992969
  20       29.109906
 
  0.1935484E+00  0.3225806E-01  0.0000000E+00  0.8056124E-03
   1       -5.761402
   2        2.948138
   3        4.959654
   4        5.147186
   5        7.927622
   6        8.706730
   7        9.080991
   8       11.137807
   9       12.457210
  10       12.938143
  11       14.743203
  12       16.340446
  13       18.683348
  14       19.174302
  15       23.150937
  16       24.582405
  17       24.993502
  18       25.952111
  19       29.029844
  20       29.171251
 
  0.2258065E+00  0.3225806E-01  0.0000000E+00  0.8056124E-03
   1       -5.601412
   2        2.356308
   3        4.842005
   4        5.022716
   5        7.804136
   6        8.843725
   7        9.206502
   8       11.608752
   9       12.553579
  10       12.963965
  11       14.738614
  12       16.720915
  13       19.260734
  14       19.780943
  15       23.506033
  16       23.749904
  17       24.287291
  18       25.505244
  19       29.076712
  20       29.241659
 
  0.2580645E+00  0.3225806E-01  0.0000000E+00  0.8056124E-03
   1       -5.418438
   2        1.777896
   3        4.735549
   4        4.901237
   5        7.683900
   6        8.942555
   7        9.281809
   8       11.981570
   9       12.836418
  10       13.088261
  11       14.629808
  12       17.294126
  13       19.807221
  14       20.351432
  15       23.006390
  16       23.269772
  17       23.796366
  18       25.573175
  19       29.124276
  20       29.311790
 
  0.2903226E+00  0.3225806E-01  0.0000000E+00  0.8056124E-03
   1       -5.214475
   2        1.219549
   3        4.642340
   4        4.786687
   5        7.571935
   6        8.996309
   7        9.306133
   8       12.299678
   9       13.243973
  10       13.315196
  11       14.521980
  12       17.957896
  13       20.170481
  14       20.739380
  15       22.503829
  16       22.809074
  17       23.351010
  18       26.121749
  19       29.162104
  20       29.369495
 
  0.3225806E+00  0.3225806E-01  0.0000000E+00  0.8056124E-03
   1       -4.992629
   2        0.687439
   3        4.563675
   4        4.681697
   5        7.471408
   6        9.010822
   7        9.288838
   8       12.632454
   9       13.624948
  10       13.637251
  11       14.528415
  12       18.629383
  13       20.069901
  14       20.672224
  15       22.492626
  16       22.522024
  17       23.184726
  18       26.858298
  19       29.175963
  20       29.394593
 
  0.3548387E+00  0.3225806E-01  0.0000000E+00  0.8056124E-03
   1       -4.757761
   2        0.188568
   3        4.500321
   4        4.588036
   5        7.384415
   6        8.999317
   7        9.244244
   8       12.984577
   9       13.827611
  10       14.040735
  11       14.797974
  12       19.162239
  13       19.547257
  14       20.231617
  15       22.154899
  16       23.018107
  17       23.615132
  18       27.664733
  19       29.145245
  20       29.350238
 
  0.3870968E+00  0.3225806E-01  0.0000000E+00  0.8056124E-03
   1       -4.517798
   2       -0.267539
   3        4.452671
   4        4.506902
   5        7.312348
   6        8.976026
   7        9.186542
   8       13.273391
   9       13.982389
  10       14.510779
  11       15.272354
  12       18.870840
  13       19.163087
  14       19.860513
  15       22.107498
  16       23.722429
  17       24.301742
  18       28.441275
  19       29.039436
  20       29.104322
 
  0.4193548E+00  0.3225806E-01  0.0000000E+00  0.8056124E-03
   1       -4.286108
   2       -0.666439
   3        4.420836
   4        4.439141
   5        7.256112
   6        8.952636
   7        9.127215
   8       13.382984
   9       14.326068
  10       15.032619
  11       15.812310
  12       18.162124
  13       18.614581
  14       19.550934
  15       22.551480
  16       24.512715
  17       25.075916
  18       27.956309
  19       28.816999
  20       28.838219
 
  0.4516129E+00  0.3225806E-01  0.0000000E+00  0.8056124E-03
   1       -4.084962
   2       -0.985129
   3        4.385379
   4        4.404756
   5        7.216293
   6        8.937428
   7        9.074547
   8       13.387064
   9       14.818284
  10       15.585454
  11       16.348279
  12       17.472300
  13       17.973323
  14       19.098090
  15       23.306840
  16       25.343050
  17       25.878747
  18       26.933273
  19       28.277868
  20       28.436877
 
  0.4838710E+00  0.3225806E-01  0.0000000E+00  0.8056124E-03
   1       -3.947661
   2       -1.189747
   3        4.346115
   4        4.404243
   5        7.193245
   6        8.935587
   7        9.033965
   8       13.373601
   9       15.357906
  10       16.073406
  11       16.772932
  12       16.906289
  13       17.397569
  14       18.646441
  15       24.183329
  16       25.922784
  17       26.186186
  18       26.683962
  19       27.559050
  20       27.888085
 
 -0.4838710E+00  0.3225806E-01  0.0000000E+00  0.8056124E-03
   1       -3.909857
   2       -1.244376
   3        4.321772
   4        4.419019
   5        7.187156
   6        8.949755
   7        9.008493
   8       13.370477
   9       15.792337
  10       15.900026
  11       16.757535
  12       17.063302
  13       17.142443
  14       18.460112
  15       24.697779
  16       25.381398
  17       26.741584
  18       27.009774
  19       27.208790
  20       27.445913
 
 -0.4516129E+00  0.3225806E-01  0.0000000E+00  0.8056124E-03
   1       -3.983991
   2       -1.136543
   3        4.312719
   4        4.448738
   5        7.198121
   6        8.980395
   7        8.999045
   8       13.383700
   9       15.326251
  10       15.656699
  11       16.787971
  12       17.000317
  13       17.682949
  14       18.731938
  15       23.878522
  16       25.881588
  17       26.278486
  18       26.438432
  19       27.787902
  20       28.103102
 
 -0.4193548E+00  0.3225806E-01  0.0000000E+00  0.8056124E-03
   1       -4.146839
   2       -0.889566
   3        4.319270
   4        4.492999
   5        7.226021
   6        9.004465
   7        9.025910
   8       13.407934
   9       14.743033
  10       15.180990
  11       16.276670
  12       17.593925
  13       18.373148
  14       19.176364
  15       23.026443
  16       25.043996
  17       25.641653
  18       27.289270
  19       28.441381
  20       28.614090
 
 -0.3870968E+00  0.3225806E-01  0.0000000E+00  0.8056124E-03
   1       -4.361337
   2       -0.540860
   3        4.341681
   4        4.551335
   5        7.270665
   6        9.021343
   7        9.082498
   8       13.421131
   9       14.194247
  10       14.703433
  11       15.719276
  12       18.263632
  13       19.085672
  14       19.546346
  15       22.346108
  16       24.219293
  17       24.849119
  18       28.301327
  19       28.907842
  20       28.921291
 
 -0.3548387E+00  0.3225806E-01  0.0000000E+00  0.8056124E-03
   1       -4.597748
   2       -0.120819
   3        4.380112
   4        4.623188
   5        7.331668
   6        9.043598
   7        9.143766
   8       13.362750
   9       13.694996
  10       14.328903
  11       15.175303
  12       18.893761
  13       19.634705
  14       19.790928
  15       22.050099
  16       23.449213
  17       24.099463
  18       28.196511
  19       29.166461
  20       29.191285
 
 -0.3225806E+00  0.3225806E-01  0.0000000E+00  0.8056124E-03
   1       -4.837170
   2        0.350841
   3        4.434594
   4        4.707831
   5        7.408387
   6        9.062010
   7        9.200148
   8       13.149359
   9       13.258170
  10       14.104994
  11       14.712257
  12       18.977411
  13       19.777257
  14       20.425701
  15       22.206922
  16       22.819097
  17       23.462771
  18       27.383799
  19       29.263045
  20       29.271131
 
 -0.2903226E+00  0.3225806E-01  0.0000000E+00  0.8056124E-03
   1       -5.068374
   2        0.861668
   3        4.504962
   4        4.804293
   5        7.499848
   6        9.064243
   7        9.238662
   8       12.811422
   9       12.898099
  10       13.840672
  11       14.506689
  12       18.402056
  13       20.134286
  14       20.810733
  15       22.279567
  16       22.806669
  17       23.122654
  18       26.592095
  19       29.266209
  20       29.292111
 
 -0.2580645E+00  0.3225806E-01  0.0000000E+00  0.8056124E-03
   1       -5.284691
   2        1.403156
   3        4.590761
   4        4.911163
   5        7.604532
   6        9.036457
   7        9.243830
   8       12.422261
   9       12.629860
  10       13.472896
  11       14.555620
  12       17.726626
  13       20.053026
  14       20.696957
  15       22.470095
  16       23.271925
  17       23.330391
  18       25.893478
  19       29.220964
  20       29.275462
 
 -0.2258065E+00  0.3225806E-01  0.0000000E+00  0.8056124E-03
   1       -5.481931
   2        1.968715
   3        4.691140
   4        5.026408
   5        7.720212
   6        8.967634
   7        9.201336
   8       11.991732
   9       12.465338
  10       13.166856
  11       14.675567
  12       17.085590
  13       19.595310
  14       20.222671
  15       23.059169
  16       23.614635
  17       23.948384
  18       25.444684
  19       29.153921
  20       29.239021
 
 -0.1935484E+00  0.3225806E-01  0.0000000E+00  0.8056124E-03
   1       -5.657418
   2        2.552067
   3        4.804699
   4        5.147011
   5        7.843582
   6        8.855515
   7        9.104211
   8       11.510051
   9       12.407468
  10       12.990625
  11       14.762005
  12       16.565253
  13       19.023075
  14       19.635397
  15       23.416969
  16       23.899457
  17       24.728120
  18       25.521660
  19       29.080739
  20       29.195776
 
 -0.1612903E+00  0.3225806E-01  0.0000000E+00  0.8056124E-03
   1       -5.809415
   2        3.145936
   3        4.929259
   4        5.268509
   5        7.969687
   6        8.709742
   7        8.957599
   8       10.986168
   9       12.447156
  10       12.942987
  11       14.704821
  12       16.276680
  13       18.445167
  14       19.034680
  15       22.970273
  16       24.704833
  17       25.566132
  18       25.999428
  19       29.012086
  20       29.155889
 
 -0.1290323E+00  0.3225806E-01  0.0000000E+00  0.8056124E-03
   1       -5.936690
   2        3.740288
   3        5.061574
   4        5.384439
   5        8.091128
   6        8.549329
   7        8.777662
   8       10.441301
   9       12.565564
  10       12.991557
  11       14.461990
  12       16.263443
  13       17.905551
  14       18.459184
  15       22.423862
  16       25.552766
  17       26.414602
  18       26.600761
  19       28.957857
  20       29.129331
 
 -0.9677419E-01  0.3225806E-01  0.0000000E+00  0.8056124E-03
   1       -6.038398
   2        4.318637
   3        5.197165
   4        5.485828
   5        8.196164
   6        8.397516
   7        8.586745
   8        9.901445
   9       12.738390
  10       13.094934
  11       14.143693
  12       16.412284
  13       17.434495
  14       17.931883
  15       21.904202
  16       26.390384
  17       27.211577
  18       27.226063
  19       28.935262
  20       29.129295
 
 -0.6451613E-01  0.3225806E-01  0.0000000E+00  0.8056124E-03
   1       -6.113998
   2        4.849521
   3        5.331141
   4        5.561420
   5        8.263048
   6        8.277612
   7        8.412059
   8        9.406299
   9       12.937640
  10       13.207841
  11       13.855979
  12       16.604629
  13       17.065914
  14       17.474776
  15       21.463006
  16       27.177569
  17       27.758857
  18       27.906395
  19       28.993369
  20       29.178032
 
 -0.3225806E-01  0.3225806E-01  0.0000000E+00  0.4028062E-03
   1       -6.163096
   2        5.263051
   3        5.466466
   4        5.599634
   5        8.209685
   6        8.242366
   7        8.299386
   8        9.029051
   9       13.130305
  10       13.282328
  11       13.650954
  12       16.743356
  13       16.861611
  14       17.115462
  15       21.143210
  16       27.853399
  17       28.150029
  18       28.276795
  19       29.219615
  20       29.298696
 
  0.6451613E-01  0.6451613E-01  0.0000000E+00  0.2014031E-03
   1       -6.127308
   2        5.158977
   3        5.345723
   4        5.345733
   5        8.004899
   6        8.530949
   7        8.530957
   8        9.186009
   9       12.822788
  10       13.404622
  11       13.803495
  12       16.923394
  13       16.923397
  14       17.145099
  15       21.402421
  16       27.532123
  17       27.532128
  18       28.562500
  19       28.738208
  20       28.985684
 
  0.9677419E-01  0.6451613E-01  0.0000000E+00  0.8056124E-03
   1       -6.078214
   2        4.787206
   3        5.219257
   4        5.298430
   5        7.968083
   6        8.615887
   7        8.709391
   8        9.492051
   9       12.610454
  10       13.402831
  11       14.002885
  12       16.816992
  13       17.072799
  14       17.479907
  15       21.724678
  16       27.002129
  17       27.051781
  18       28.441750
  19       28.482845
  20       28.782516
 
  0.1290323E+00  0.6451613E-01  0.0000000E+00  0.8056124E-03
   1       -6.002650
   2        4.274020
   3        5.084426
   4        5.246078
   5        8.000702
   6        8.597406
   7        8.907123
   8        9.946836
   9       12.422877
  10       13.341046
  11       14.285093
  12       16.619238
  13       17.377162
  14       17.964892
  15       22.163482
  16       26.249157
  17       26.421013
  18       27.966752
  19       28.392236
  20       28.750790
 
  0.1612903E+00  0.6451613E-01  0.0000000E+00  0.8056124E-03
   1       -5.900979
   2        3.710687
   3        4.949664
   4        5.157433
   5        8.058045
   6        8.568130
   7        9.105167
   8       10.423453
   9       12.308583
  10       13.263900
  11       14.604690
  12       16.454219
  13       17.799291
  14       18.518786
  15       22.676384
  16       25.405071
  17       25.715028
  18       27.347953
  19       28.382446
  20       28.787686
 
  0.1935484E+00  0.6451613E-01  0.0000000E+00  0.8056124E-03
   1       -5.773760
   2        3.128218
   3        4.821024
   4        5.043403
   5        8.074012
   6        8.593956
   7        9.283656
   8       10.837435
   9       12.332871
  10       13.215858
  11       14.866023
  12       16.432494
  13       18.302385
  14       19.117917
  15       23.208274
  16       24.539537
  17       24.994182
  18       26.701892
  19       28.410486
  20       28.852252
 
  0.2258065E+00  0.6451613E-01  0.0000000E+00  0.8056124E-03
   1       -5.621841
   2        2.543488
   3        4.702689
   4        4.915935
   5        8.022665
   6        8.683110
   7        9.423626
   8       11.135088
   9       12.555019
  10       13.233183
  11       14.950485
  12       16.675767
  13       18.851377
  14       19.739757
  15       23.588865
  16       23.693356
  17       24.386128
  18       26.132915
  19       28.458194
  20       28.933284
 
  0.2580645E+00  0.6451613E-01  0.0000000E+00  0.8056124E-03
   1       -5.446431
   2        1.967139
   3        4.597489
   4        4.784195
   5        7.934966
   6        8.784635
   7        9.511493
   8       11.354542
   9       12.948235
  10       13.340334
  11       14.876476
  12       17.162655
  13       19.397483
  14       20.344019
  15       22.914441
  16       23.310753
  17       24.217469
  18       25.884453
  19       28.515018
  20       29.023139
 
  0.2903226E+00  0.6451613E-01  0.0000000E+00  0.8056124E-03
   1       -5.249269
   2        1.406970
   3        4.507297
   4        4.654549
   5        7.837426
   6        8.859474
   7        9.543897
   8       11.584867
   9       13.422924
  10       13.547216
  11       14.752632
  12       17.779301
  13       19.825485
  14       20.817505
  15       22.316185
  16       22.821866
  17       23.925179
  18       26.204607
  19       28.571879
  20       29.112482
 
  0.3225806E+00  0.6451613E-01  0.0000000E+00  0.8056124E-03
   1       -5.033021
   2        0.869638
   3        4.433292
   4        4.531271
   5        7.742576
   6        8.896623
   7        9.528399
   8       11.874435
   9       13.850067
  10       13.880954
  11       14.684086
  12       18.429180
  13       19.869304
  14       20.892819
  15       22.162901
  16       22.626632
  17       23.550468
  18       26.849989
  19       28.618685
  20       29.185337
 
  0.3548387E+00  0.6451613E-01  0.0000000E+00  0.8056124E-03
   1       -4.801848
   2        0.362002
   3        4.376171
   4        4.417255
   5        7.656525
   6        8.903485
   7        9.479027
   8       12.227604
   9       14.126476
  10       14.236731
  11       14.872704
  12       18.969926
  13       19.433347
  14       20.591388
  15       22.450307
  16       22.548671
  17       23.665381
  18       27.604793
  19       28.642305
  20       29.207058
 
  0.3870968E+00  0.6451613E-01  0.0000000E+00  0.8056124E-03
   1       -4.562413
   2       -0.107273
   3        4.314503
   4        4.336252
   5        7.582608
   6        8.894144
   7        9.410728
   8       12.623105
   9       14.144721
  10       14.692299
  11       15.345178
  12       18.782506
  13       19.067759
  14       20.386743
  15       22.205015
  16       23.207414
  17       24.264657
  18       28.334363
  19       28.624298
  20       29.089650
 
  0.4193548E+00  0.6451613E-01  0.0000000E+00  0.8056124E-03
   1       -4.325910
   2       -0.525608
   3        4.224468
   4        4.313589
   5        7.522824
   6        8.881759
   7        9.336111
   8       13.013372
   9       14.168197
  10       15.200995
  11       15.897701
  12       18.079476
  13       18.652888
  14       20.202052
  15       22.388959
  16       23.976697
  17       25.009137
  18       28.100619
  19       28.538484
  20       28.947254
 
  0.4516129E+00  0.6451613E-01  0.0000000E+00  0.8056124E-03
   1       -4.111228
   2       -0.873206
   3        4.148257
   4        4.308007
   5        7.478392
   6        8.875986
   7        9.264567
   8       13.308019
   9       14.333346
  10       15.737973
  11       16.447479
  12       17.392406
  13       18.093819
  14       19.764123
  15       23.028139
  16       24.798295
  17       25.790093
  18       27.139625
  19       28.348994
  20       28.392264
 
  0.4838710E+00  0.6451613E-01  0.0000000E+00  0.8056124E-03
   1       -3.948178
   2       -1.119547
   3        4.086762
   4        4.319174
   5        7.450049
   6        8.882983
   7        9.202492
   8       13.448271
   9       14.690868
  10       16.156084
  11       16.857719
  12       16.881174
  13       17.647953
  14       19.227507
  15       23.865524
  16       25.643040
  17       26.113564
  18       26.592180
  19       27.653418
  20       28.016968
 
 -0.4838710E+00  0.6451613E-01  0.0000000E+00  0.8056124E-03
   1       -3.874017
   2       -1.226988
   3        4.040750
   4        4.346610
   5        7.438210
   6        8.906071
   7        9.153773
   8       13.497583
   9       15.124049
  10       15.825341
  11       16.727342
  12       17.179732
  13       17.697366
  14       18.780704
  15       24.666648
  16       25.271442
  17       26.483762
  18       26.809752
  19       27.307505
  20       27.524644
 
 -0.4516129E+00  0.6451613E-01  0.0000000E+00  0.8056124E-03
   1       -3.912100
   2       -1.172075
   3        4.010894
   4        4.389733
   5        7.443059
   6        8.946289
   7        9.120153
   8       13.514792
   9       15.223897
  10       15.358383
  11       16.577673
  12       17.562832
  13       17.811028