 vasp.5.3.3 18Dez12 (build Apr 06 2015 16:58:45) complex                        
  
 executed on             LinuxIFC date 2015.04.20  10:12:06
 running on   16 total cores
 distrk:  each k-point on   16 cores,    1 groups
 distr:  one band on NCORES_PER_BAND=   4 cores,    4 groups


--------------------------------------------------------------------------------------------------------


 INCAR:
 POTCAR:    PAW_PBE Si 05Jan2001                  
 POTCAR:    PAW_PBE Si 05Jan2001                  
   VRHFIN =Si: s2p2                                                             
   LEXCH  = PE                                                                  
   EATOM  =   103.0669 eV,    7.5752 Ry                                         
                                                                                
   TITEL  = PAW_PBE Si 05Jan2001                                                
   LULTRA =        F    use ultrasoft PP ?                                      
   IUNSCR =        1    unscreen: 0-lin 1-nonlin 2-no                           
   RPACOR =    1.500    partial core radius                                     
   POMASS =   28.085; ZVAL   =    4.000    mass and valenz                      
   RCORE  =    1.900    outmost cutoff radius                                   
   RWIGS  =    2.480; RWIGS  =    1.312    wigner-seitz radius (au A)           
   ENMAX  =  245.345; ENMIN  =  184.009 eV                                      
   ICORE  =        2    local potential                                         
   LCOR   =        T    correct aug charges                                     
   LPAW   =        T    paw PP                                                  
   EAUG   =  322.069                                                            
   DEXC   =    0.000                                                            
   RMAX   =    1.950    core radius for proj-oper                               
   RAUG   =    1.300    factor for augmentation sphere                          
   RDEP   =    1.993    radius for radial grids                                 
   RDEPT  =    1.837    core radius for aug-charge                              
                                                                                
   Atomic configuration                                                         
    6 entries                                                                   
     n  l   j            E        occ.                                          
     1  0  0.50     -1785.8828   2.0000                                         
     2  0  0.50      -139.4969   2.0000                                         
     2  1  1.50       -95.5546   6.0000                                         
     3  0  0.50       -10.8127   2.0000                                         
     3  1  0.50        -4.0811   2.0000                                         
     3  2  1.50        -4.0817   0.0000                                         
   Description                                                                  
     l       E           TYP  RCUT    TYP  RCUT                                 
     0    -10.8127223     23  1.900                                             
     0     -7.6451159     23  1.900                                             
     1     -4.0811372     23  1.900                                             
     1      2.4879257     23  1.900                                             
     2     -4.0817478      7  1.900                                             
  local pseudopotential read in
  partial core-charges read in
  partial kinetic energy density read in
  atomic valenz-charges read in
  non local Contribution for L=           0  read in
    real space projection operators read in
  non local Contribution for L=           0  read in
    real space projection operators read in
  non local Contribution for L=           1  read in
    real space projection operators read in
  non local Contribution for L=           1  read in
    real space projection operators read in
    PAW grid and wavefunctions read in
 
   number of l-projection  operators is LMAX  =           4
   number of lm-projection operators is LMMAX =           8
 
  PAW_PBE Si 05Jan2001                  :
 energy of atom  1       EATOM= -103.0669
 kinetic energy error for atom=    0.0006 (will be added to EATOM!!)
 
 
 POSCAR: Si                                      
  positions in direct lattice
  No initial velocities read in
 exchange correlation table for  LEXCH =        8
   RHO(1)=    0.500       N(1)  =     2000
   RHO(2)=  100.500       N(2)  =     4000
 


--------------------------------------------------------------------------------------------------------


 ion  position               nearest neighbor table
   1  0.000  0.000  0.000-   2 2.37   2 2.37   2 2.37   2 2.37
   2  0.250  0.250  0.250-   1 2.37   1 2.37   1 2.37   1 2.37
 
  LATTYP: Found a face centered cubic cell.
 ALAT       =     5.4687200000
  
  Lattice vectors:
  
 A1 = (   0.0000000000,   2.7343600000,   2.7343600000)
 A2 = (   2.7343600000,   0.0000000000,   2.7343600000)
 A3 = (   2.7343600000,   2.7343600000,   0.0000000000)


Analysis of symmetry for initial positions (statically):
=====================================================================
 Subroutine PRICEL returns:
 Original cell was already a primitive cell.
 

 Routine SETGRP: Setting up the symmetry group for a 
 face centered cubic supercell.


 Subroutine GETGRP returns: Found 48 space group operations
 (whereof 24 operations were pure point group operations)
 out of a pool of 48 trial point group operations.


The static configuration has the point symmetry T_d .
 The point group associated with its full space group is O_h .


Analysis of symmetry for dynamics (positions and initial velocities):
=====================================================================
 Subroutine PRICEL returns:
 Original cell was already a primitive cell.
 

 Routine SETGRP: Setting up the symmetry group for a 
 face centered cubic supercell.


 Subroutine GETGRP returns: Found 48 space group operations
 (whereof 24 operations were pure point group operations)
 out of a pool of 48 trial point group operations.


The dynamic configuration has the point symmetry T_d .
 The point group associated with its full space group is O_h .


 irot  :   1
 --------------------------------------------------------------------
 isymop:   1   0   0
           0   1   0
           0   0   1

 gtrans:     0.0000000     0.0000000     0.0000000

 ptrans:     0.0000000     0.0000000     0.0000000
 rotmap:
 (   1->   1)  (   2->   2) 


 irot  :   2
 --------------------------------------------------------------------
 isymop:   0   0   1
           1   0   0
           0   1   0

 gtrans:     0.0000000     0.0000000     0.0000000

 ptrans:     0.0000000     0.0000000     0.0000000
 rotmap:
 (   1->   1)  (   2->   2) 


 irot  :   3
 --------------------------------------------------------------------
 isymop:   0   1   0
           0   0   1
           1   0   0

 gtrans:     0.0000000     0.0000000     0.0000000

 ptrans:     0.0000000     0.0000000     0.0000000
 rotmap:
 (   1->   1)  (   2->   2) 


 irot  :   4
 --------------------------------------------------------------------
 isymop:  -1  -1  -1
           0   0   1
           1   0   0

 gtrans:     0.0000000     0.0000000     0.0000000

 ptrans:     0.0000000     0.0000000     0.0000000
 rotmap:
 (   1->   1)  (   2->   2) 


 irot  :   5
 --------------------------------------------------------------------
 isymop:  -1  -1  -1
           0   1   0
           0   0   1

 gtrans:     0.0000000     0.0000000     0.0000000

 ptrans:     0.0000000     0.0000000     0.0000000
 rotmap:
 (   1->   1)  (   2->   2) 


 irot  :   6
 --------------------------------------------------------------------
 isymop:  -1  -1  -1
           1   0   0
           0   1   0

 gtrans:     0.0000000     0.0000000     0.0000000

 ptrans:     0.0000000     0.0000000     0.0000000
 rotmap:
 (   1->   1)  (   2->   2) 


 irot  :   7
 --------------------------------------------------------------------
 isymop:   0   1   0
           1   0   0
          -1  -1  -1

 gtrans:     0.0000000     0.0000000     0.0000000

 ptrans:     0.0000000     0.0000000     0.0000000
 rotmap:
 (   1->   1)  (   2->   2) 


 irot  :   8
 --------------------------------------------------------------------
 isymop:   1   0   0
           0   0   1
          -1  -1  -1

 gtrans:     0.0000000     0.0000000     0.0000000

 ptrans:     0.0000000     0.0000000     0.0000000
 rotmap:
 (   1->   1)  (   2->   2) 


 irot  :   9
 --------------------------------------------------------------------
 isymop:   0   0   1
           0   1   0
          -1  -1  -1

 gtrans:     0.0000000     0.0000000     0.0000000

 ptrans:     0.0000000     0.0000000     0.0000000
 rotmap:
 (   1->   1)  (   2->   2) 


 irot  :  10
 --------------------------------------------------------------------
 isymop:   0   0   1
          -1  -1  -1
           0   1   0

 gtrans:     0.0000000     0.0000000     0.0000000

 ptrans:     0.0000000     0.0000000     0.0000000
 rotmap:
 (   1->   1)  (   2->   2) 


 irot  :  11
 --------------------------------------------------------------------
 isymop:   0   1   0
          -1  -1  -1
           1   0   0

 gtrans:     0.0000000     0.0000000     0.0000000

 ptrans:     0.0000000     0.0000000     0.0000000
 rotmap:
 (   1->   1)  (   2->   2) 


 irot  :  12
 --------------------------------------------------------------------
 isymop:   1   0   0
          -1  -1  -1
           0   0   1

 gtrans:     0.0000000     0.0000000     0.0000000

 ptrans:     0.0000000     0.0000000     0.0000000
 rotmap:
 (   1->   1)  (   2->   2) 


 irot  :  13
 --------------------------------------------------------------------
 isymop:  -1  -1  -1
           0   1   0
           1   0   0

 gtrans:     0.0000000     0.0000000     0.0000000

 ptrans:     0.0000000     0.0000000     0.0000000
 rotmap:
 (   1->   1)  (   2->   2) 


 irot  :  14
 --------------------------------------------------------------------
 isymop:  -1  -1  -1
           1   0   0
           0   0   1

 gtrans:     0.0000000     0.0000000     0.0000000

 ptrans:     0.0000000     0.0000000     0.0000000
 rotmap:
 (   1->   1)  (   2->   2) 


 irot  :  15
 --------------------------------------------------------------------
 isymop:  -1  -1  -1
           0   0   1
           0   1   0

 gtrans:     0.0000000     0.0000000     0.0000000

 ptrans:     0.0000000     0.0000000     0.0000000
 rotmap:
 (   1->   1)  (   2->   2) 


 irot  :  16
 --------------------------------------------------------------------
 isymop:   0   1   0
           0   0   1
          -1  -1  -1

 gtrans:     0.0000000     0.0000000     0.0000000

 ptrans:     0.0000000     0.0000000     0.0000000
 rotmap:
 (   1->   1)  (   2->   2) 


 irot  :  17
 --------------------------------------------------------------------
 isymop:   1   0   0
           0   1   0
          -1  -1  -1

 gtrans:     0.0000000     0.0000000     0.0000000

 ptrans:     0.0000000     0.0000000     0.0000000
 rotmap:
 (   1->   1)  (   2->   2) 


 irot  :  18
 --------------------------------------------------------------------
 isymop:   0   0   1
           1   0   0
          -1  -1  -1

 gtrans:     0.0000000     0.0000000     0.0000000

 ptrans:     0.0000000     0.0000000     0.0000000
 rotmap:
 (   1->   1)  (   2->   2) 


 irot  :  19
 --------------------------------------------------------------------
 isymop:   1   0   0
          -1  -1  -1
           0   1   0

 gtrans:     0.0000000     0.0000000     0.0000000

 ptrans:     0.0000000     0.0000000     0.0000000
 rotmap:
 (   1->   1)  (   2->   2) 


 irot  :  20
 --------------------------------------------------------------------
 isymop:   0   0   1
          -1  -1  -1
           1   0   0

 gtrans:     0.0000000     0.0000000     0.0000000

 ptrans:     0.0000000     0.0000000     0.0000000
 rotmap:
 (   1->   1)  (   2->   2) 


 irot  :  21
 --------------------------------------------------------------------
 isymop:   0   1   0
          -1  -1  -1
           0   0   1

 gtrans:     0.0000000     0.0000000     0.0000000

 ptrans:     0.0000000     0.0000000     0.0000000
 rotmap:
 (   1->   1)  (   2->   2) 


 irot  :  22
 --------------------------------------------------------------------
 isymop:   1   0   0
           0   0   1
           0   1   0

 gtrans:     0.0000000     0.0000000     0.0000000

 ptrans:     0.0000000     0.0000000     0.0000000
 rotmap:
 (   1->   1)  (   2->   2) 


 irot  :  23
 --------------------------------------------------------------------
 isymop:   0   1   0
           1   0   0
           0   0   1

 gtrans:     0.0000000     0.0000000     0.0000000

 ptrans:     0.0000000     0.0000000     0.0000000
 rotmap:
 (   1->   1)  (   2->   2) 


 irot  :  24
 --------------------------------------------------------------------
 isymop:   0   0   1
           0   1   0
           1   0   0

 gtrans:     0.0000000     0.0000000     0.0000000

 ptrans:     0.0000000     0.0000000     0.0000000
 rotmap:
 (   1->   1)  (   2->   2) 


 irot  :  25
 --------------------------------------------------------------------
 isymop:  -1   0   0
           0  -1   0
           0   0  -1

 gtrans:     0.2500000     0.2500000     0.2500000

 ptrans:     0.0000000     0.0000000     0.0000000
 rotmap:
 (   1->   2)  (   2->   1) 


 irot  :  26
 --------------------------------------------------------------------
 isymop:   0   0  -1
          -1   0   0
           0  -1   0

 gtrans:     0.2500000     0.2500000     0.2500000

 ptrans:     0.0000000     0.0000000     0.0000000
 rotmap:
 (   1->   2)  (   2->   1) 


 irot  :  27
 --------------------------------------------------------------------
 isymop:   0  -1   0
           0   0  -1
          -1   0   0

 gtrans:     0.2500000     0.2500000     0.2500000

 ptrans:     0.0000000     0.0000000     0.0000000
 rotmap:
 (   1->   2)  (   2->   1) 


 irot  :  28
 --------------------------------------------------------------------
 isymop:   1   1   1
           0   0  -1
          -1   0   0

 gtrans:     0.2500000     0.2500000     0.2500000

 ptrans:     0.0000000     0.0000000     0.0000000
 rotmap:
 (   1->   2)  (   2->   1) 


 irot  :  29
 --------------------------------------------------------------------
 isymop:   1   1   1
           0  -1   0
           0   0  -1

 gtrans:     0.2500000     0.2500000     0.2500000

 ptrans:     0.0000000     0.0000000     0.0000000
 rotmap:
 (   1->   2)  (   2->   1) 


 irot  :  30
 --------------------------------------------------------------------
 isymop:   1   1   1
          -1   0   0
           0  -1   0

 gtrans:     0.2500000     0.2500000     0.2500000

 ptrans:     0.0000000     0.0000000     0.0000000
 rotmap:
 (   1->   2)  (   2->   1) 


 irot  :  31
 --------------------------------------------------------------------
 isymop:   0  -1   0
          -1   0   0
           1   1   1

 gtrans:     0.2500000     0.2500000     0.2500000

 ptrans:     0.0000000     0.0000000     0.0000000
 rotmap:
 (   1->   2)  (   2->   1) 


 irot  :  32
 --------------------------------------------------------------------
 isymop:  -1   0   0
           0   0  -1
           1   1   1

 gtrans:     0.2500000     0.2500000     0.2500000

 ptrans:     0.0000000     0.0000000     0.0000000
 rotmap:
 (   1->   2)  (   2->   1) 


 irot  :  33
 --------------------------------------------------------------------
 isymop:   0   0  -1
           0  -1   0
           1   1   1

 gtrans:     0.2500000     0.2500000     0.2500000

 ptrans:     0.0000000     0.0000000     0.0000000
 rotmap:
 (   1->   2)  (   2->   1) 


 irot  :  34
 --------------------------------------------------------------------
 isymop:   0   0  -1
           1   1   1
           0  -1   0

 gtrans:     0.2500000     0.2500000     0.2500000

 ptrans:     0.0000000     0.0000000     0.0000000
 rotmap:
 (   1->   2)  (   2->   1) 


 irot  :  35
 --------------------------------------------------------------------
 isymop:   0  -1   0
           1   1   1
          -1   0   0

 gtrans:     0.2500000     0.2500000     0.2500000

 ptrans:     0.0000000     0.0000000     0.0000000
 rotmap:
 (   1->   2)  (   2->   1) 


 irot  :  36
 --------------------------------------------------------------------
 isymop:  -1   0   0
           1   1   1
           0   0  -1

 gtrans:     0.2500000     0.2500000     0.2500000

 ptrans:     0.0000000     0.0000000     0.0000000
 rotmap:
 (   1->   2)  (   2->   1) 


 irot  :  37
 --------------------------------------------------------------------
 isymop:   1   1   1
           0  -1   0
          -1   0   0

 gtrans:     0.2500000     0.2500000     0.2500000

 ptrans:     0.0000000     0.0000000     0.0000000
 rotmap:
 (   1->   2)  (   2->   1) 


 irot  :  38
 --------------------------------------------------------------------
 isymop:   1   1   1
          -1   0   0
           0   0  -1

 gtrans:     0.2500000     0.2500000     0.2500000

 ptrans:     0.0000000     0.0000000     0.0000000
 rotmap:
 (   1->   2)  (   2->   1) 


 irot  :  39
 --------------------------------------------------------------------
 isymop:   1   1   1
           0   0  -1
           0  -1   0

 gtrans:     0.2500000     0.2500000     0.2500000

 ptrans:     0.0000000     0.0000000     0.0000000
 rotmap:
 (   1->   2)  (   2->   1) 


 irot  :  40
 --------------------------------------------------------------------
 isymop:   0  -1   0
           0   0  -1
           1   1   1

 gtrans:     0.2500000     0.2500000     0.2500000

 ptrans:     0.0000000     0.0000000     0.0000000
 rotmap:
 (   1->   2)  (   2->   1) 


 irot  :  41
 --------------------------------------------------------------------
 isymop:  -1   0   0
           0  -1   0
           1   1   1

 gtrans:     0.2500000     0.2500000     0.2500000

 ptrans:     0.0000000     0.0000000     0.0000000
 rotmap:
 (   1->   2)  (   2->   1) 


 irot  :  42
 --------------------------------------------------------------------
 isymop:   0   0  -1
          -1   0   0
           1   1   1

 gtrans:     0.2500000     0.2500000     0.2500000

 ptrans:     0.0000000     0.0000000     0.0000000
 rotmap:
 (   1->   2)  (   2->   1) 


 irot  :  43
 --------------------------------------------------------------------
 isymop:  -1   0   0
           1   1   1
           0  -1   0

 gtrans:     0.2500000     0.2500000     0.2500000

 ptrans:     0.0000000     0.0000000     0.0000000
 rotmap:
 (   1->   2)  (   2->   1) 


 irot  :  44
 --------------------------------------------------------------------
 isymop:   0   0  -1
           1   1   1
          -1   0   0

 gtrans:     0.2500000     0.2500000     0.2500000

 ptrans:     0.0000000     0.0000000     0.0000000
 rotmap:
 (   1->   2)  (   2->   1) 


 irot  :  45
 --------------------------------------------------------------------
 isymop:   0  -1   0
           1   1   1
           0   0  -1

 gtrans:     0.2500000     0.2500000     0.2500000

 ptrans:     0.0000000     0.0000000     0.0000000
 rotmap:
 (   1->   2)  (   2->   1) 


 irot  :  46
 --------------------------------------------------------------------
 isymop:  -1   0   0
           0   0  -1
           0  -1   0

 gtrans:     0.2500000     0.2500000     0.2500000

 ptrans:     0.0000000     0.0000000     0.0000000
 rotmap:
 (   1->   2)  (   2->   1) 


 irot  :  47
 --------------------------------------------------------------------
 isymop:   0  -1   0
          -1   0   0
           0   0  -1

 gtrans:     0.2500000     0.2500000     0.2500000

 ptrans:     0.0000000     0.0000000     0.0000000
 rotmap:
 (   1->   2)  (   2->   1) 


 irot  :  48
 --------------------------------------------------------------------
 isymop:   0   0  -1
           0  -1   0
          -1   0   0

 gtrans:     0.2500000     0.2500000     0.2500000

 ptrans:     0.0000000     0.0000000     0.0000000
 rotmap:
 (   1->   2)  (   2->   1) 
 
 
 KPOINTS: auto                                    

Automatic generation of k-mesh.
Space group operators:
 irot       det(A)        alpha          n_x          n_y          n_z        tau_x        tau_y        tau_z
    1     1.000000     0.000000     1.000000     0.000000     0.000000     0.000000     0.000000     0.000000
    2     1.000000   120.000000    -0.577350    -0.577350    -0.577350     0.000000     0.000000     0.000000
    3     1.000000   120.000000     0.577350     0.577350     0.577350     0.000000     0.000000     0.000000
    4    -1.000000    90.000000     0.000000     0.000000    -1.000000     0.000000     0.000000     0.000000
    5    -1.000000   180.000000     0.000000     0.707107     0.707107     0.000000     0.000000     0.000000
    6    -1.000000    90.000000     0.000000     1.000000     0.000000     0.000000     0.000000     0.000000
    7     1.000000   180.000000     0.000000     0.000000     1.000000     0.000000     0.000000     0.000000
    8     1.000000   120.000000    -0.577350     0.577350     0.577350     0.000000     0.000000     0.000000
    9     1.000000   120.000000    -0.577350     0.577350    -0.577350     0.000000     0.000000     0.000000
   10    -1.000000    90.000000     0.000000     0.000000     1.000000     0.000000     0.000000     0.000000
   11    -1.000000    90.000000    -1.000000     0.000000     0.000000     0.000000     0.000000     0.000000
   12    -1.000000   180.000000     0.707107     0.000000     0.707107     0.000000     0.000000     0.000000
   13     1.000000   120.000000     0.577350    -0.577350     0.577350     0.000000     0.000000     0.000000
   14     1.000000   120.000000    -0.577350    -0.577350     0.577350     0.000000     0.000000     0.000000
   15     1.000000   180.000000     1.000000     0.000000     0.000000     0.000000     0.000000     0.000000
   16    -1.000000    90.000000     0.000000    -1.000000     0.000000     0.000000     0.000000     0.000000
   17    -1.000000   180.000000     0.707107     0.707107     0.000000     0.000000     0.000000     0.000000
   18    -1.000000    90.000000     1.000000     0.000000     0.000000     0.000000     0.000000     0.000000
   19     1.000000   120.000000     0.577350    -0.577350    -0.577350     0.000000     0.000000     0.000000
   20     1.000000   180.000000     0.000000     1.000000     0.000000     0.000000     0.000000     0.000000
   21     1.000000   120.000000     0.577350     0.577350    -0.577350     0.000000     0.000000     0.000000
   22    -1.000000   180.000000     0.000000    -0.707107     0.707107     0.000000     0.000000     0.000000
   23    -1.000000   180.000000     0.707107    -0.707107     0.000000     0.000000     0.000000     0.000000
   24    -1.000000   180.000000     0.707107     0.000000    -0.707107     0.000000     0.000000     0.000000
   25    -1.000000     0.000000     1.000000     0.000000     0.000000     0.250000     0.250000     0.250000
   26    -1.000000   120.000000    -0.577350    -0.577350    -0.577350     0.250000     0.250000     0.250000
   27    -1.000000   120.000000     0.577350     0.577350     0.577350     0.250000     0.250000     0.250000
   28     1.000000    90.000000     0.000000     0.000000    -1.000000     0.250000     0.250000     0.250000
   29     1.000000   180.000000     0.000000     0.707107     0.707107     0.250000     0.250000     0.250000
   30     1.000000    90.000000     0.000000     1.000000     0.000000     0.250000     0.250000     0.250000
   31    -1.000000   180.000000     0.000000     0.000000     1.000000     0.250000     0.250000     0.250000
   32    -1.000000   120.000000    -0.577350     0.577350     0.577350     0.250000     0.250000     0.250000
   33    -1.000000   120.000000    -0.577350     0.577350    -0.577350     0.250000     0.250000     0.250000
   34     1.000000    90.000000     0.000000     0.000000     1.000000     0.250000     0.250000     0.250000
   35     1.000000    90.000000    -1.000000     0.000000     0.000000     0.250000     0.250000     0.250000
   36     1.000000   180.000000     0.707107     0.000000     0.707107     0.250000     0.250000     0.250000
   37    -1.000000   120.000000     0.577350    -0.577350     0.577350     0.250000     0.250000     0.250000
   38    -1.000000   120.000000    -0.577350    -0.577350     0.577350     0.250000     0.250000     0.250000
   39    -1.000000   180.000000     1.000000     0.000000     0.000000     0.250000     0.250000     0.250000
   40     1.000000    90.000000     0.000000    -1.000000     0.000000     0.250000     0.250000     0.250000
   41     1.000000   180.000000     0.707107     0.707107     0.000000     0.250000     0.250000     0.250000
   42     1.000000    90.000000     1.000000     0.000000     0.000000     0.250000     0.250000     0.250000
   43    -1.000000   120.000000     0.577350    -0.577350    -0.577350     0.250000     0.250000     0.250000
   44    -1.000000   180.000000     0.000000     1.000000     0.000000     0.250000     0.250000     0.250000
   45    -1.000000   120.000000     0.577350     0.577350    -0.577350     0.250000     0.250000     0.250000
   46     1.000000   180.000000     0.000000    -0.707107     0.707107     0.250000     0.250000     0.250000
   47     1.000000   180.000000     0.707107    -0.707107     0.000000     0.250000     0.250000     0.250000
   48     1.000000   180.000000     0.707107     0.000000    -0.707107     0.250000     0.250000     0.250000
 
 Subroutine IBZKPT returns following result:
 ===========================================
 
 Found    816 irreducible k-points:
 
 Following reciprocal coordinates:
            Coordinates               Weight
  0.000000  0.000000  0.000000      1.000000
  0.032258  0.000000  0.000000      8.000000
  0.064516  0.000000  0.000000      8.000000
  0.096774  0.000000  0.000000      8.000000
  0.129032  0.000000  0.000000      8.000000
  0.161290  0.000000  0.000000      8.000000
  0.193548  0.000000  0.000000      8.000000
  0.225806  0.000000  0.000000      8.000000
  0.258065  0.000000  0.000000      8.000000
  0.290323  0.000000  0.000000      8.000000
  0.322581  0.000000  0.000000      8.000000
  0.354839  0.000000  0.000000      8.000000
  0.387097  0.000000  0.000000      8.000000
  0.419355  0.000000  0.000000      8.000000
  0.451613  0.000000  0.000000      8.000000
  0.483871  0.000000  0.000000      8.000000
  0.032258  0.032258  0.000000      6.000000
  0.064516  0.032258  0.000000     24.000000
  0.096774  0.032258  0.000000     24.000000
  0.129032  0.032258  0.000000     24.000000
  0.161290  0.032258  0.000000     24.000000
  0.193548  0.032258  0.000000     24.000000
  0.225806  0.032258  0.000000     24.000000
  0.258065  0.032258  0.000000     24.000000
  0.290323  0.032258  0.000000     24.000000
  0.322581  0.032258  0.000000     24.000000
  0.354839  0.032258  0.000000     24.000000
  0.387097  0.032258  0.000000     24.000000
  0.419355  0.032258  0.000000     24.000000
  0.451613  0.032258  0.000000     24.000000
  0.483871  0.032258  0.000000     24.000000
 -0.483871  0.032258  0.000000     24.000000
 -0.451613  0.032258  0.000000     24.000000
 -0.419355  0.032258  0.000000     24.000000
 -0.387097  0.032258  0.000000     24.000000
 -0.354839  0.032258  0.000000     24.000000
 -0.322581  0.032258  0.000000     24.000000
 -0.290323  0.032258  0.000000     24.000000
 -0.258065  0.032258  0.000000     24.000000
 -0.225806  0.032258  0.000000     24.000000
 -0.193548  0.032258  0.000000     24.000000
 -0.161290  0.032258  0.000000     24.000000
 -0.129032  0.032258  0.000000     24.000000
 -0.096774  0.032258  0.000000     24.000000
 -0.064516  0.032258  0.000000     24.000000
 -0.032258  0.032258  0.000000     12.000000
  0.064516  0.064516  0.000000      6.000000
  0.096774  0.064516  0.000000     24.000000
  0.129032  0.064516  0.000000     24.000000
  0.161290  0.064516  0.000000     24.000000
  0.193548  0.064516  0.000000     24.000000
  0.225806  0.064516  0.000000     24.000000
  0.258065  0.064516  0.000000     24.000000
  0.290323  0.064516  0.000000     24.000000
  0.322581  0.064516  0.000000     24.000000
  0.354839  0.064516  0.000000     24.000000
  0.387097  0.064516  0.000000     24.000000
  0.419355  0.064516  0.000000     24.000000
  0.451613  0.064516  0.000000     24.000000
  0.483871  0.064516  0.000000     24.000000
 -0.483871  0.064516  0.000000     24.000000
 -0.451613  0.064516  0.000000     24.000000
 -0.419355  0.064516  0.000000     24.000000
 -0.387097  0.064516  0.000000     24.000000
 -0.354839  0.064516  0.000000     24.000000
 -0.322581  0.064516  0.000000     24.000000
 -0.290323  0.064516  0.000000     24.000000
 -0.258065  0.064516  0.000000     24.000000
 -0.225806  0.064516  0.000000     24.000000
 -0.193548  0.064516  0.000000     24.000000
 -0.161290  0.064516  0.000000     24.000000
 -0.129032  0.064516  0.000000     24.000000
 -0.096774  0.064516  0.000000     24.000000
 -0.064516  0.064516  0.000000     12.000000
  0.096774  0.096774  0.000000      6.000000
  0.129032  0.096774  0.000000     24.000000
  0.161290  0.096774  0.000000     24.000000
  0.193548  0.096774  0.000000     24.000000
  0.225806  0.096774  0.000000     24.000000
  0.258065  0.096774  0.000000     24.000000
  0.290323  0.096774  0.000000     24.000000
  0.322581  0.096774  0.000000     24.000000
  0.354839  0.096774  0.000000     24.000000
  0.387097  0.096774  0.000000     24.000000
  0.419355  0.096774  0.000000     24.000000
  0.451613  0.096774  0.000000     24.000000
  0.483871  0.096774  0.000000     24.000000
 -0.483871  0.096774  0.000000     24.000000
 -0.451613  0.096774  0.000000     24.000000
 -0.419355  0.096774  0.000000     24.000000
 -0.387097  0.096774  0.000000     24.000000
 -0.354839  0.096774  0.000000     24.000000
 -0.322581  0.096774  0.000000     24.000000
 -0.290323  0.096774  0.000000     24.000000
 -0.258065  0.096774  0.000000     24.000000
 -0.225806  0.096774  0.000000     24.000000
 -0.193548  0.096774  0.000000     24.000000
 -0.161290  0.096774  0.000000     24.000000
 -0.129032  0.096774  0.000000     24.000000
 -0.096774  0.096774  0.000000     12.000000
  0.129032  0.129032  0.000000      6.000000
  0.161290  0.129032  0.000000     24.000000
  0.193548  0.129032  0.000000     24.000000
  0.225806  0.129032  0.000000     24.000000
  0.258065  0.129032  0.000000     24.000000
  0.290323  0.129032  0.000000     24.000000
  0.322581  0.129032  0.000000     24.000000
  0.354839  0.129032  0.000000     24.000000
  0.387097  0.129032  0.000000     24.000000
  0.419355  0.129032  0.000000     24.000000
  0.451613  0.129032  0.000000     24.000000
  0.483871  0.129032  0.000000     24.000000
 -0.483871  0.129032  0.000000     24.000000
 -0.451613  0.129032  0.000000     24.000000
 -0.419355  0.129032  0.000000     24.000000
 -0.387097  0.129032  0.000000     24.000000
 -0.354839  0.129032  0.000000     24.000000
 -0.322581  0.129032  0.000000     24.000000
 -0.290323  0.129032  0.000000     24.000000
 -0.258065  0.129032  0.000000     24.000000
 -0.225806  0.129032  0.000000     24.000000
 -0.193548  0.129032  0.000000     24.000000
 -0.161290  0.129032  0.000000     24.000000
 -0.129032  0.129032  0.000000     12.000000
  0.161290  0.161290  0.000000      6.000000
  0.193548  0.161290  0.000000     24.000000
  0.225806  0.161290  0.000000     24.000000
  0.258065  0.161290  0.000000     24.000000
  0.290323  0.161290  0.000000     24.000000
  0.322581  0.161290  0.000000     24.000000
  0.354839  0.161290  0.000000     24.000000
  0.387097  0.161290  0.000000     24.000000
  0.419355  0.161290  0.000000     24.000000
  0.451613  0.161290  0.000000     24.000000
  0.483871  0.161290  0.000000     24.000000
 -0.483871  0.161290  0.000000     24.000000
 -0.451613  0.161290  0.000000     24.000000
 -0.419355  0.161290  0.000000     24.000000
 -0.387097  0.161290  0.000000     24.000000
 -0.354839  0.161290  0.000000     24.000000
 -0.322581  0.161290  0.000000     24.000000
 -0.290323  0.161290  0.000000     24.000000
 -0.258065  0.161290  0.000000     24.000000
 -0.225806  0.161290  0.000000     24.000000
 -0.193548  0.161290  0.000000     24.000000
 -0.161290  0.161290  0.000000     12.000000
  0.193548  0.193548  0.000000      6.000000
  0.225806  0.193548  0.000000     24.000000
  0.258065  0.193548  0.000000     24.000000
  0.290323  0.193548  0.000000     24.000000
  0.322581  0.193548  0.000000     24.000000
  0.354839  0.193548  0.000000     24.000000
  0.387097  0.193548  0.000000     24.000000
  0.419355  0.193548  0.000000     24.000000
  0.451613  0.193548  0.000000     24.000000
  0.483871  0.193548  0.000000     24.000000
 -0.483871  0.193548  0.000000     24.000000
 -0.451613  0.193548  0.000000     24.000000
 -0.419355  0.193548  0.000000     24.000000
 -0.387097  0.193548  0.000000     24.000000
 -0.354839  0.193548  0.000000     24.000000
 -0.322581  0.193548  0.000000     24.000000
 -0.290323  0.193548  0.000000     24.000000
 -0.258065  0.193548  0.000000     24.000000
 -0.225806  0.193548  0.000000     24.000000
 -0.193548  0.193548  0.000000     12.000000
  0.225806  0.225806  0.000000      6.000000
  0.258065  0.225806  0.000000     24.000000
  0.290323  0.225806  0.000000     24.000000
  0.322581  0.225806  0.000000     24.000000
  0.354839  0.225806  0.000000     24.000000
  0.387097  0.225806  0.000000     24.000000
  0.419355  0.225806  0.000000     24.000000
  0.451613  0.225806  0.000000     24.000000
  0.483871  0.225806  0.000000     24.000000
 -0.483871  0.225806  0.000000     24.000000
 -0.451613  0.225806  0.000000     24.000000
 -0.419355  0.225806  0.000000     24.000000
 -0.387097  0.225806  0.000000     24.000000
 -0.354839  0.225806  0.000000     24.000000
 -0.322581  0.225806  0.000000     24.000000
 -0.290323  0.225806  0.000000     24.000000
 -0.258065  0.225806  0.000000     24.000000
 -0.225806  0.225806  0.000000     12.000000
  0.258065  0.258065  0.000000      6.000000
  0.290323  0.258065  0.000000     24.000000
  0.322581  0.258065  0.000000     24.000000
  0.354839  0.258065  0.000000     24.000000
  0.387097  0.258065  0.000000     24.000000
  0.419355  0.258065  0.000000     24.000000
  0.451613  0.258065  0.000000     24.000000
  0.483871  0.258065  0.000000     24.000000
 -0.483871  0.258065  0.000000     24.000000
 -0.451613  0.258065  0.000000     24.000000
 -0.419355  0.258065  0.000000     24.000000
 -0.387097  0.258065  0.000000     24.000000
 -0.354839  0.258065  0.000000     24.000000
 -0.322581  0.258065  0.000000     24.000000
 -0.290323  0.258065  0.000000     24.000000
 -0.258065  0.258065  0.000000     12.000000
  0.290323  0.290323  0.000000      6.000000
  0.322581  0.290323  0.000000     24.000000
  0.354839  0.290323  0.000000     24.000000
  0.387097  0.290323  0.000000     24.000000
  0.419355  0.290323  0.000000     24.000000
  0.451613  0.290323  0.000000     24.000000
  0.483871  0.290323  0.000000     24.000000
 -0.483871  0.290323  0.000000     24.000000
 -0.451613  0.290323  0.000000     24.000000
 -0.419355  0.290323  0.000000     24.000000
 -0.387097  0.290323  0.000000     24.000000
 -0.354839  0.290323  0.000000     24.000000
 -0.322581  0.290323  0.000000     24.000000
 -0.290323  0.290323  0.000000     12.000000
  0.322581  0.322581  0.000000      6.000000
  0.354839  0.322581  0.000000     24.000000
  0.387097  0.322581  0.000000     24.000000
  0.419355  0.322581  0.000000     24.000000
  0.451613  0.322581  0.000000     24.000000
  0.483871  0.322581  0.000000     24.000000
 -0.483871  0.322581  0.000000     24.000000
 -0.451613  0.322581  0.000000     24.000000
 -0.419355  0.322581  0.000000     24.000000
 -0.387097  0.322581  0.000000     24.000000
 -0.354839  0.322581  0.000000     24.000000
 -0.322581  0.322581  0.000000     12.000000
  0.354839  0.354839  0.000000      6.000000
  0.387097  0.354839  0.000000     24.000000
  0.419355  0.354839  0.000000     24.000000
  0.451613  0.354839  0.000000     24.000000
  0.483871  0.354839  0.000000     24.000000
 -0.483871  0.354839  0.000000     24.000000
 -0.451613  0.354839  0.000000     24.000000
 -0.419355  0.354839  0.000000     24.000000
 -0.387097  0.354839  0.000000     24.000000
 -0.354839  0.354839  0.000000     12.000000
  0.387097  0.387097  0.000000      6.000000
  0.419355  0.387097  0.000000     24.000000
  0.451613  0.387097  0.000000     24.000000
  0.483871  0.387097  0.000000     24.000000
 -0.483871  0.387097  0.000000     24.000000
 -0.451613  0.387097  0.000000     24.000000
 -0.419355  0.387097  0.000000     24.000000
 -0.387097  0.387097  0.000000     12.000000
  0.419355  0.419355  0.000000      6.000000
  0.451613  0.419355  0.000000     24.000000
  0.483871  0.419355  0.000000     24.000000
 -0.483871  0.419355  0.000000     24.000000
 -0.451613  0.419355  0.000000     24.000000
 -0.419355  0.419355  0.000000     12.000000
  0.451613  0.451613  0.000000      6.000000
  0.483871  0.451613  0.000000     24.000000
 -0.483871  0.451613  0.000000     24.000000
 -0.451613  0.451613  0.000000     12.000000
  0.483871  0.483871  0.000000      6.000000
 -0.483871  0.483871  0.000000     12.000000
  0.096774  0.064516  0.032258     24.000000
  0.129032  0.064516  0.032258     48.000000
  0.161290  0.064516  0.032258     48.000000
  0.193548  0.064516  0.032258     48.000000
  0.225806  0.064516  0.032258     48.000000
  0.258065  0.064516  0.032258     48.000000
  0.290323  0.064516  0.032258     48.000000
  0.322581  0.064516  0.032258     48.000000
  0.354839  0.064516  0.032258     48.000000
  0.387097  0.064516  0.032258     48.000000
  0.419355  0.064516  0.032258     48.000000
  0.451613  0.064516  0.032258     48.000000
  0.483871  0.064516  0.032258     48.000000
 -0.483871  0.064516  0.032258     48.000000
  0.129032  0.096774  0.032258     24.000000
  0.161290  0.096774  0.032258     48.000000
  0.193548  0.096774  0.032258     48.000000
  0.225806  0.096774  0.032258     48.000000
  0.258065  0.096774  0.032258     48.000000
  0.290323  0.096774  0.032258     48.000000
  0.322581  0.096774  0.032258     48.000000
  0.354839  0.096774  0.032258     48.000000
  0.387097  0.096774  0.032258     48.000000
  0.419355  0.096774  0.032258     48.000000
  0.451613  0.096774  0.032258     48.000000
  0.483871  0.096774  0.032258     48.000000
 -0.483871  0.096774  0.032258     48.000000
 -0.451613  0.096774  0.032258     48.000000
 -0.419355  0.096774  0.032258     48.000000
 -0.387097  0.096774  0.032258     48.000000
 -0.354839  0.096774  0.032258     48.000000
 -0.322581  0.096774  0.032258     48.000000
 -0.290323  0.096774  0.032258     48.000000
 -0.258065  0.096774  0.032258     48.000000
 -0.225806  0.096774  0.032258     48.000000
 -0.193548  0.096774  0.032258     48.000000
 -0.161290  0.096774  0.032258     48.000000
 -0.129032  0.096774  0.032258     48.000000
 -0.096774  0.096774  0.032258     48.000000
 -0.064516  0.096774  0.032258     24.000000
  0.161290  0.129032  0.032258     24.000000
  0.193548  0.129032  0.032258     48.000000
  0.225806  0.129032  0.032258     48.000000
  0.258065  0.129032  0.032258     48.000000
  0.290323  0.129032  0.032258     48.000000
  0.322581  0.129032  0.032258     48.000000
  0.354839  0.129032  0.032258     48.000000
  0.387097  0.129032  0.032258     48.000000
  0.419355  0.129032  0.032258     48.000000
  0.451613  0.129032  0.032258     48.000000
  0.483871  0.129032  0.032258     48.000000
 -0.483871  0.129032  0.032258     48.000000
 -0.451613  0.129032  0.032258     48.000000
 -0.419355  0.129032  0.032258     48.000000
 -0.387097  0.129032  0.032258     48.000000
 -0.354839  0.129032  0.032258     48.000000
 -0.322581  0.129032  0.032258     48.000000
 -0.290323  0.129032  0.032258     48.000000
 -0.258065  0.129032  0.032258     48.000000
 -0.225806  0.129032  0.032258     48.000000
 -0.193548  0.129032  0.032258     48.000000
 -0.161290  0.129032  0.032258     48.000000
 -0.129032  0.129032  0.032258     48.000000
 -0.096774  0.129032  0.032258     24.000000
  0.193548  0.161290  0.032258     24.000000
  0.225806  0.161290  0.032258     48.000000
  0.258065  0.161290  0.032258     48.000000
  0.290323  0.161290  0.032258     48.000000
  0.322581  0.161290  0.032258     48.000000
  0.354839  0.161290  0.032258     48.000000
  0.387097  0.161290  0.032258     48.000000
  0.419355  0.161290  0.032258     48.000000
  0.451613  0.161290  0.032258     48.000000
  0.483871  0.161290  0.032258     48.000000
 -0.483871  0.161290  0.032258     48.000000
 -0.451613  0.161290  0.032258     48.000000
 -0.419355  0.161290  0.032258     48.000000
 -0.387097  0.161290  0.032258     48.000000
 -0.354839  0.161290  0.032258     48.000000
 -0.322581  0.161290  0.032258     48.000000
 -0.290323  0.161290  0.032258     48.000000
 -0.258065  0.161290  0.032258     48.000000
 -0.225806  0.161290  0.032258     48.000000
 -0.193548  0.161290  0.032258     48.000000
 -0.161290  0.161290  0.032258     48.000000
 -0.129032  0.161290  0.032258     24.000000
  0.225806  0.193548  0.032258     24.000000
  0.258065  0.193548  0.032258     48.000000
  0.290323  0.193548  0.032258     48.000000
  0.322581  0.193548  0.032258     48.000000
  0.354839  0.193548  0.032258     48.000000
  0.387097  0.193548  0.032258     48.000000
  0.419355  0.193548  0.032258     48.000000
  0.451613  0.193548  0.032258     48.000000
  0.483871  0.193548  0.032258     48.000000
 -0.483871  0.193548  0.032258     48.000000
 -0.451613  0.193548  0.032258     48.000000
 -0.419355  0.193548  0.032258     48.000000
 -0.387097  0.193548  0.032258     48.000000
 -0.354839  0.193548  0.032258     48.000000
 -0.322581  0.193548  0.032258     48.000000
 -0.290323  0.193548  0.032258     48.000000
 -0.258065  0.193548  0.032258     48.000000
 -0.225806  0.193548  0.032258     48.000000
 -0.193548  0.193548  0.032258     48.000000
 -0.161290  0.193548  0.032258     24.000000
  0.258065  0.225806  0.032258     24.000000
  0.290323  0.225806  0.032258     48.000000
  0.322581  0.225806  0.032258     48.000000
  0.354839  0.225806  0.032258     48.000000
  0.387097  0.225806  0.032258     48.000000
  0.419355  0.225806  0.032258     48.000000
  0.451613  0.225806  0.032258     48.000000
  0.483871  0.225806  0.032258     48.000000
 -0.483871  0.225806  0.032258     48.000000
 -0.451613  0.225806  0.032258     48.000000
 -0.419355  0.225806  0.032258     48.000000
 -0.387097  0.225806  0.032258     48.000000
 -0.354839  0.225806  0.032258     48.000000
 -0.322581  0.225806  0.032258     48.000000
 -0.290323  0.225806  0.032258     48.000000
 -0.258065  0.225806  0.032258     48.000000
 -0.225806  0.225806  0.032258     48.000000
 -0.193548  0.225806  0.032258     24.000000
  0.290323  0.258065  0.032258     24.000000
  0.322581  0.258065  0.032258     48.000000
  0.354839  0.258065  0.032258     48.000000
  0.387097  0.258065  0.032258     48.000000
  0.419355  0.258065  0.032258     48.000000
  0.451613  0.258065  0.032258     48.000000
  0.483871  0.258065  0.032258     48.000000
 -0.483871  0.258065  0.032258     48.000000
 -0.451613  0.258065  0.032258     48.000000
 -0.419355  0.258065  0.032258     48.000000
 -0.387097  0.258065  0.032258     48.000000
 -0.354839  0.258065  0.032258     48.000000
 -0.322581  0.258065  0.032258     48.000000
 -0.290323  0.258065  0.032258     48.000000
 -0.258065  0.258065  0.032258     48.000000
 -0.225806  0.258065  0.032258     24.000000
  0.322581  0.290323  0.032258     24.000000
  0.354839  0.290323  0.032258     48.000000
  0.387097  0.290323  0.032258     48.000000
  0.419355  0.290323  0.032258     48.000000
  0.451613  0.290323  0.032258     48.000000
  0.483871  0.290323  0.032258     48.000000
 -0.483871  0.290323  0.032258     48.000000
 -0.451613  0.290323  0.032258     48.000000
 -0.419355  0.290323  0.032258     48.000000
 -0.387097  0.290323  0.032258     48.000000
 -0.354839  0.290323  0.032258     48.000000
 -0.322581  0.290323  0.032258     48.000000
 -0.290323  0.290323  0.032258     48.000000
 -0.258065  0.290323  0.032258     24.000000
  0.354839  0.322581  0.032258     24.000000
  0.387097  0.322581  0.032258     48.000000
  0.419355  0.322581  0.032258     48.000000
  0.451613  0.322581  0.032258     48.000000
  0.483871  0.322581  0.032258     48.000000
 -0.483871  0.322581  0.032258     48.000000
 -0.451613  0.322581  0.032258     48.000000
 -0.419355  0.322581  0.032258     48.000000
 -0.387097  0.322581  0.032258     48.000000
 -0.354839  0.322581  0.032258     48.000000
 -0.322581  0.322581  0.032258     48.000000
 -0.290323  0.322581  0.032258     24.000000
  0.387097  0.354839  0.032258     24.000000
  0.419355  0.354839  0.032258     48.000000
  0.451613  0.354839  0.032258     48.000000
  0.483871  0.354839  0.032258     48.000000
 -0.483871  0.354839  0.032258     48.000000
 -0.451613  0.354839  0.032258     48.000000
 -0.419355  0.354839  0.032258     48.000000
 -0.387097  0.354839  0.032258     48.000000
 -0.354839  0.354839  0.032258     48.000000
 -0.322581  0.354839  0.032258     24.000000
  0.419355  0.387097  0.032258     24.000000
  0.451613  0.387097  0.032258     48.000000
  0.483871  0.387097  0.032258     48.000000
 -0.483871  0.387097  0.032258     48.000000
 -0.451613  0.387097  0.032258     48.000000
 -0.419355  0.387097  0.032258     48.000000
 -0.387097  0.387097  0.032258     48.000000
 -0.354839  0.387097  0.032258     24.000000
  0.451613  0.419355  0.032258     24.000000
  0.483871  0.419355  0.032258     48.000000
 -0.483871  0.419355  0.032258     48.000000
 -0.451613  0.419355  0.032258     48.000000
 -0.419355  0.419355  0.032258     48.000000
 -0.387097  0.419355  0.032258     24.000000
  0.483871  0.451613  0.032258     24.000000
 -0.483871  0.451613  0.032258     48.000000
 -0.451613  0.451613  0.032258     48.000000
 -0.419355  0.451613  0.032258     24.000000
 -0.483871  0.483871  0.032258     24.000000
 -0.451613  0.483871  0.032258     24.000000
  0.193548  0.129032  0.064516     24.000000
  0.225806  0.129032  0.064516     48.000000
  0.258065  0.129032  0.064516     48.000000
  0.290323  0.129032  0.064516     48.000000
  0.322581  0.129032  0.064516     48.000000
  0.354839  0.129032  0.064516     48.000000
  0.387097  0.129032  0.064516     48.000000
  0.419355  0.129032  0.064516     48.000000
  0.451613  0.129032  0.064516     48.000000
  0.483871  0.129032  0.064516     48.000000
 -0.483871  0.129032  0.064516     48.000000
 -0.451613  0.129032  0.064516     48.000000
  0.225806  0.161290  0.064516     24.000000
  0.258065  0.161290  0.064516     48.000000
  0.290323  0.161290  0.064516     48.000000
  0.322581  0.161290  0.064516     48.000000
  0.354839  0.161290  0.064516     48.000000
  0.387097  0.161290  0.064516     48.000000
  0.419355  0.161290  0.064516     48.000000
  0.451613  0.161290  0.064516     48.000000
  0.483871  0.161290  0.064516     48.000000
 -0.483871  0.161290  0.064516     48.000000
 -0.451613  0.161290  0.064516     48.000000
 -0.419355  0.161290  0.064516     48.000000
 -0.387097  0.161290  0.064516     48.000000
 -0.354839  0.161290  0.064516     48.000000
 -0.322581  0.161290  0.064516     48.000000
 -0.290323  0.161290  0.064516     48.000000
 -0.258065  0.161290  0.064516     48.000000
 -0.225806  0.161290  0.064516     48.000000
 -0.193548  0.161290  0.064516     48.000000
 -0.161290  0.161290  0.064516     48.000000
 -0.129032  0.161290  0.064516     48.000000
 -0.096774  0.161290  0.064516     24.000000
  0.258065  0.193548  0.064516     24.000000
  0.290323  0.193548  0.064516     48.000000
  0.322581  0.193548  0.064516     48.000000
  0.354839  0.193548  0.064516     48.000000
  0.387097  0.193548  0.064516     48.000000
  0.419355  0.193548  0.064516     48.000000
  0.451613  0.193548  0.064516     48.000000
  0.483871  0.193548  0.064516     48.000000
 -0.483871  0.193548  0.064516     48.000000
 -0.451613  0.193548  0.064516     48.000000
 -0.419355  0.193548  0.064516     48.000000
 -0.387097  0.193548  0.064516     48.000000
 -0.354839  0.193548  0.064516     48.000000
 -0.322581  0.193548  0.064516     48.000000
 -0.290323  0.193548  0.064516     48.000000
 -0.258065  0.193548  0.064516     48.000000
 -0.225806  0.193548  0.064516     48.000000
 -0.193548  0.193548  0.064516     48.000000
 -0.161290  0.193548  0.064516     48.000000
 -0.129032  0.193548  0.064516     24.000000
  0.290323  0.225806  0.064516     24.000000
  0.322581  0.225806  0.064516     48.000000
  0.354839  0.225806  0.064516     48.000000
  0.387097  0.225806  0.064516     48.000000
  0.419355  0.225806  0.064516     48.000000
  0.451613  0.225806  0.064516     48.000000
  0.483871  0.225806  0.064516     48.000000
 -0.483871  0.225806  0.064516     48.000000
 -0.451613  0.225806  0.064516     48.000000
 -0.419355  0.225806  0.064516     48.000000
 -0.387097  0.225806  0.064516     48.000000
 -0.354839  0.225806  0.064516     48.000000
 -0.322581  0.225806  0.064516     48.000000
 -0.290323  0.225806  0.064516     48.000000
 -0.258065  0.225806  0.064516     48.000000
 -0.225806  0.225806  0.064516     48.000000
 -0.193548  0.225806  0.064516     48.000000
 -0.161290  0.225806  0.064516     24.000000
  0.322581  0.258065  0.064516     24.000000
  0.354839  0.258065  0.064516     48.000000
  0.387097  0.258065  0.064516     48.000000
  0.419355  0.258065  0.064516     48.000000
  0.451613  0.258065  0.064516     48.000000
  0.483871  0.258065  0.064516     48.000000
 -0.483871  0.258065  0.064516     48.000000
 -0.451613  0.258065  0.064516     48.000000
 -0.419355  0.258065  0.064516     48.000000
 -0.387097  0.258065  0.064516     48.000000
 -0.354839  0.258065  0.064516     48.000000
 -0.322581  0.258065  0.064516     48.000000
 -0.290323  0.258065  0.064516     48.000000
 -0.258065  0.258065  0.064516     48.000000
 -0.225806  0.258065  0.064516     48.000000
 -0.193548  0.258065  0.064516     24.000000
  0.354839  0.290323  0.064516     24.000000
  0.387097  0.290323  0.064516     48.000000
  0.419355  0.290323  0.064516     48.000000
  0.451613  0.290323  0.064516     48.000000
  0.483871  0.290323  0.064516     48.000000
 -0.483871  0.290323  0.064516     48.000000
 -0.451613  0.290323  0.064516     48.000000
 -0.419355  0.290323  0.064516     48.000000
 -0.387097  0.290323  0.064516     48.000000
 -0.354839  0.290323  0.064516     48.000000
 -0.322581  0.290323  0.064516     48.000000
 -0.290323  0.290323  0.064516     48.000000
 -0.258065  0.290323  0.064516     48.000000
 -0.225806  0.290323  0.064516     24.000000
  0.387097  0.322581  0.064516     24.000000
  0.419355  0.322581  0.064516     48.000000
  0.451613  0.322581  0.064516     48.000000
  0.483871  0.322581  0.064516     48.000000
 -0.483871  0.322581  0.064516     48.000000
 -0.451613  0.322581  0.064516     48.000000
 -0.419355  0.322581  0.064516     48.000000
 -0.387097  0.322581  0.064516     48.000000
 -0.354839  0.322581  0.064516     48.000000
 -0.322581  0.322581  0.064516     48.000000
 -0.290323  0.322581  0.064516     48.000000
 -0.258065  0.322581  0.064516     24.000000
  0.419355  0.354839  0.064516     24.000000
  0.451613  0.354839  0.064516     48.000000
  0.483871  0.354839  0.064516     48.000000
 -0.483871  0.354839  0.064516     48.000000
 -0.451613  0.354839  0.064516     48.000000
 -0.419355  0.354839  0.064516     48.000000
 -0.387097  0.354839  0.064516     48.000000
 -0.354839  0.354839  0.064516     48.000000
 -0.322581  0.354839  0.064516     48.000000
 -0.290323  0.354839  0.064516     24.000000
  0.451613  0.387097  0.064516     24.000000
  0.483871  0.387097  0.064516     48.000000
 -0.483871  0.387097  0.064516     48.000000
 -0.451613  0.387097  0.064516     48.000000
 -0.419355  0.387097  0.064516     48.000000
 -0.387097  0.387097  0.064516     48.000000
 -0.354839  0.387097  0.064516     48.000000
 -0.322581  0.387097  0.064516     24.000000
  0.483871  0.419355  0.064516     24.000000
 -0.483871  0.419355  0.064516     48.000000
 -0.451613  0.419355  0.064516     48.000000
 -0.419355  0.419355  0.064516     48.000000
 -0.387097  0.419355  0.064516     48.000000
 -0.354839  0.419355  0.064516     24.000000
 -0.483871  0.451613  0.064516     24.000000
 -0.451613  0.451613  0.064516     48.000000
 -0.419355  0.451613  0.064516     48.000000
 -0.387097  0.451613  0.064516     24.000000
 -0.451613  0.483871  0.064516     24.000000
 -0.419355  0.483871  0.064516     24.000000
  0.290323  0.193548  0.096774     24.000000
  0.322581  0.193548  0.096774     48.000000
  0.354839  0.193548  0.096774     48.000000
  0.387097  0.193548  0.096774     48.000000
  0.419355  0.193548  0.096774     48.000000
  0.451613  0.193548  0.096774     48.000000
  0.483871  0.193548  0.096774     48.000000
 -0.483871  0.193548  0.096774     48.000000
 -0.451613  0.193548  0.096774     48.000000
 -0.419355  0.193548  0.096774     48.000000
  0.322581  0.225806  0.096774     24.000000
  0.354839  0.225806  0.096774     48.000000
  0.387097  0.225806  0.096774     48.000000
  0.419355  0.225806  0.096774     48.000000
  0.451613  0.225806  0.096774     48.000000
  0.483871  0.225806  0.096774     48.000000
 -0.483871  0.225806  0.096774     48.000000
 -0.451613  0.225806  0.096774     48.000000
 -0.419355  0.225806  0.096774     48.000000
 -0.387097  0.225806  0.096774     48.000000
 -0.354839  0.225806  0.096774     48.000000
 -0.322581  0.225806  0.096774     48.000000
 -0.290323  0.225806  0.096774     48.000000
 -0.258065  0.225806  0.096774     48.000000
 -0.225806  0.225806  0.096774     48.000000
 -0.193548  0.225806  0.096774     48.000000
 -0.161290  0.225806  0.096774     48.000000
 -0.129032  0.225806  0.096774     24.000000
  0.354839  0.258065  0.096774     24.000000
  0.387097  0.258065  0.096774     48.000000
  0.419355  0.258065  0.096774     48.000000
  0.451613  0.258065  0.096774     48.000000
  0.483871  0.258065  0.096774     48.000000
 -0.483871  0.258065  0.096774     48.000000
 -0.451613  0.258065  0.096774     48.000000
 -0.419355  0.258065  0.096774     48.000000
 -0.387097  0.258065  0.096774     48.000000
 -0.354839  0.258065  0.096774     48.000000
 -0.322581  0.258065  0.096774     48.000000
 -0.290323  0.258065  0.096774     48.000000
 -0.258065  0.258065  0.096774     48.000000
 -0.225806  0.258065  0.096774     48.000000
 -0.193548  0.258065  0.096774     48.000000
 -0.161290  0.258065  0.096774     24.000000
  0.387097  0.290323  0.096774     24.000000
  0.419355  0.290323  0.096774     48.000000
  0.451613  0.290323  0.096774     48.000000
  0.483871  0.290323  0.096774     48.000000
 -0.483871  0.290323  0.096774     48.000000
 -0.451613  0.290323  0.096774     48.000000
 -0.419355  0.290323  0.096774     48.000000
 -0.387097  0.290323  0.096774     48.000000
 -0.354839  0.290323  0.096774     48.000000
 -0.322581  0.290323  0.096774     48.000000
 -0.290323  0.290323  0.096774     48.000000
 -0.258065  0.290323  0.096774     48.000000
 -0.225806  0.290323  0.096774     48.000000
 -0.193548  0.290323  0.096774     24.000000
  0.419355  0.322581  0.096774     24.000000
  0.451613  0.322581  0.096774     48.000000
  0.483871  0.322581  0.096774     48.000000
 -0.483871  0.322581  0.096774     48.000000
 -0.451613  0.322581  0.096774     48.000000
 -0.419355  0.322581  0.096774     48.000000
 -0.387097  0.322581  0.096774     48.000000
 -0.354839  0.322581  0.096774     48.000000
 -0.322581  0.322581  0.096774     48.000000
 -0.290323  0.322581  0.096774     48.000000
 -0.258065  0.322581  0.096774     48.000000
 -0.225806  0.322581  0.096774     24.000000
  0.451613  0.354839  0.096774     24.000000
  0.483871  0.354839  0.096774     48.000000
 -0.483871  0.354839  0.096774     48.000000
 -0.451613  0.354839  0.096774     48.000000
 -0.419355  0.354839  0.096774     48.000000
 -0.387097  0.354839  0.096774     48.000000
 -0.354839  0.354839  0.096774     48.000000
 -0.322581  0.354839  0.096774     48.000000
 -0.290323  0.354839  0.096774     48.000000
 -0.258065  0.354839  0.096774     24.000000
  0.483871  0.387097  0.096774     24.000000
 -0.483871  0.387097  0.096774     48.000000
 -0.451613  0.387097  0.096774     48.000000
 -0.419355  0.387097  0.096774     48.000000
 -0.387097  0.387097  0.096774     48.000000
 -0.354839  0.387097  0.096774     48.000000
 -0.322581  0.387097  0.096774     48.000000
 -0.290323  0.387097  0.096774     24.000000
 -0.483871  0.419355  0.096774     24.000000
 -0.451613  0.419355  0.096774     48.000000
 -0.419355  0.419355  0.096774     48.000000
 -0.387097  0.419355  0.096774     48.000000
 -0.354839  0.419355  0.096774     48.000000
 -0.322581  0.419355  0.096774     24.000000
 -0.451613  0.451613  0.096774     24.000000
 -0.419355  0.451613  0.096774     48.000000
 -0.387097  0.451613  0.096774     48.000000
 -0.354839  0.451613  0.096774     24.000000
 -0.419355  0.483871  0.096774     24.000000
 -0.387097  0.483871  0.096774     24.000000
  0.387097  0.258065  0.129032     24.000000
  0.419355  0.258065  0.129032     48.000000
  0.451613  0.258065  0.129032     48.000000
  0.483871  0.258065  0.129032     48.000000
 -0.483871  0.258065  0.129032     48.000000
 -0.451613  0.258065  0.129032     48.000000
 -0.419355  0.258065  0.129032     48.000000
 -0.387097  0.258065  0.129032     48.000000
  0.419355  0.290323  0.129032     24.000000
  0.451613  0.290323  0.129032     48.000000
  0.483871  0.290323  0.129032     48.000000
 -0.483871  0.290323  0.129032     48.000000
 -0.451613  0.290323  0.129032     48.000000
 -0.419355  0.290323  0.129032     48.000000
 -0.387097  0.290323  0.129032     48.000000
 -0.354839  0.290323  0.129032     48.000000
 -0.322581  0.290323  0.129032     48.000000
 -0.290323  0.290323  0.129032     48.000000
 -0.258065  0.290323  0.129032     48.000000
 -0.225806  0.290323  0.129032     48.000000
 -0.193548  0.290323  0.129032     48.000000
 -0.161290  0.290323  0.129032     24.000000
  0.451613  0.322581  0.129032     24.000000
  0.483871  0.322581  0.129032     48.000000
 -0.483871  0.322581  0.129032     48.000000
 -0.451613  0.322581  0.129032     48.000000
 -0.419355  0.322581  0.129032     48.000000
 -0.387097  0.322581  0.129032     48.000000
 -0.354839  0.322581  0.129032     48.000000
 -0.322581  0.322581  0.129032     48.000000
 -0.290323  0.322581  0.129032     48.000000
 -0.258065  0.322581  0.129032     48.000000
 -0.225806  0.322581  0.129032     48.000000
 -0.193548  0.322581  0.129032     24.000000
  0.483871  0.354839  0.129032     24.000000
 -0.483871  0.354839  0.129032     48.000000
 -0.451613  0.354839  0.129032     48.000000
 -0.419355  0.354839  0.129032     48.000000
 -0.387097  0.354839  0.129032     48.000000
 -0.354839  0.354839  0.129032     48.000000
 -0.322581  0.354839  0.129032     48.000000
 -0.290323  0.354839  0.129032     48.000000
 -0.258065  0.354839  0.129032     48.000000
 -0.225806  0.354839  0.129032     24.000000
 -0.483871  0.387097  0.129032     24.000000
 -0.451613  0.387097  0.129032     48.000000
 -0.419355  0.387097  0.129032     48.000000
 -0.387097  0.387097  0.129032     48.000000
 -0.354839  0.387097  0.129032     48.000000
 -0.322581  0.387097  0.129032     48.000000
 -0.290323  0.387097  0.129032     48.000000
 -0.258065  0.387097  0.129032     24.000000
 -0.451613  0.419355  0.129032     24.000000
 -0.419355  0.419355  0.129032     48.000000
 -0.387097  0.419355  0.129032     48.000000
 -0.354839  0.419355  0.129032     48.000000
 -0.322581  0.419355  0.129032     48.000000
 -0.290323  0.419355  0.129032     24.000000
 -0.419355  0.451613  0.129032     24.000000
 -0.387097  0.451613  0.129032     48.000000
 -0.354839  0.451613  0.129032     48.000000
 -0.322581  0.451613  0.129032     24.000000
 -0.387097  0.483871  0.129032     24.000000
 -0.354839  0.483871  0.129032     24.000000
  0.483871  0.322581  0.161290     24.000000
 -0.483871  0.322581  0.161290     48.000000
 -0.451613  0.322581  0.161290     48.000000
 -0.419355  0.322581  0.161290     48.000000
 -0.387097  0.322581  0.161290     48.000000
 -0.354839  0.322581  0.161290     48.000000
 -0.483871  0.354839  0.161290     24.000000
 -0.451613  0.354839  0.161290     48.000000
 -0.419355  0.354839  0.161290     48.000000
 -0.387097  0.354839  0.161290     48.000000
 -0.354839  0.354839  0.161290     48.000000
 -0.322581  0.354839  0.161290     48.000000
 -0.290323  0.354839  0.161290     48.000000
 -0.258065  0.354839  0.161290     48.000000
 -0.225806  0.354839  0.161290     48.000000
 -0.193548  0.354839  0.161290     24.000000
 -0.451613  0.387097  0.161290     24.000000
 -0.419355  0.387097  0.161290     48.000000
 -0.387097  0.387097  0.161290     48.000000
 -0.354839  0.387097  0.161290     48.000000
 -0.322581  0.387097  0.161290     48.000000
 -0.290323  0.387097  0.161290     48.000000
 -0.258065  0.387097  0.161290     48.000000
 -0.225806  0.387097  0.161290     24.000000
 -0.419355  0.419355  0.161290     24.000000
 -0.387097  0.419355  0.161290     48.000000
 -0.354839  0.419355  0.161290     48.000000
 -0.322581  0.419355  0.161290     48.000000
 -0.290323  0.419355  0.161290     48.000000
 -0.258065  0.419355  0.161290     24.000000
 -0.387097  0.451613  0.161290     24.000000
 -0.354839  0.451613  0.161290     48.000000
 -0.322581  0.451613  0.161290     48.000000
 -0.290323  0.451613  0.161290     24.000000
 -0.354839  0.483871  0.161290     24.000000
 -0.322581  0.483871  0.161290     24.000000
 -0.419355  0.387097  0.193548     24.000000
 -0.387097  0.387097  0.193548     48.000000
 -0.354839  0.387097  0.193548     48.000000
 -0.322581  0.387097  0.193548     48.000000
 -0.387097  0.419355  0.193548     24.000000
 -0.354839  0.419355  0.193548     48.000000
 -0.322581  0.419355  0.193548     48.000000
 -0.290323  0.419355  0.193548     48.000000
 -0.258065  0.419355  0.193548     48.000000
 -0.225806  0.419355  0.193548     24.000000
 -0.354839  0.451613  0.193548     24.000000
 -0.322581  0.451613  0.193548     48.000000
 -0.290323  0.451613  0.193548     48.000000
 -0.258065  0.451613  0.193548     24.000000
 -0.322581  0.483871  0.193548     24.000000
 -0.290323  0.483871  0.193548     24.000000
 -0.322581  0.451613  0.225806     24.000000
 -0.290323  0.451613  0.225806     48.000000
 -0.290323  0.483871  0.225806     24.000000
 -0.258065  0.483871  0.225806     24.000000
 
 Following cartesian coordinates:
            Coordinates               Weight
  0.000000  0.000000  0.000000      1.000000
 -0.032258  0.032258  0.032258      8.000000
 -0.064516  0.064516  0.064516      8.000000
 -0.096774  0.096774  0.096774      8.000000
 -0.129032  0.129032  0.129032      8.000000
 -0.161290  0.161290  0.161290      8.000000
 -0.193548  0.193548  0.193548      8.000000
 -0.225806  0.225806  0.225806      8.000000
 -0.258065  0.258065  0.258065      8.000000
 -0.290323  0.290323  0.290323      8.000000
 -0.322581  0.322581  0.322581      8.000000
 -0.354839  0.354839  0.354839      8.000000
 -0.387097  0.387097  0.387097      8.000000
 -0.419355  0.419355  0.419355      8.000000
 -0.451613  0.451613  0.451613      8.000000
 -0.483871  0.483871  0.483871      8.000000
  0.000000  0.000000  0.064516      6.000000
 -0.032258  0.032258  0.096774     24.000000
 -0.064516  0.064516  0.129032     24.000000
 -0.096774  0.096774  0.161290     24.000000
 -0.129032  0.129032  0.193548     24.000000
 -0.161290  0.161290  0.225806     24.000000
 -0.193548  0.193548  0.258065     24.000000
 -0.225806  0.225806  0.290323     24.000000
 -0.258065  0.258065  0.322581     24.000000
 -0.290323  0.290323  0.354839     24.000000
 -0.322581  0.322581  0.387097     24.000000
 -0.354839  0.354839  0.419355     24.000000
 -0.387097  0.387097  0.451613     24.000000
 -0.419355  0.419355  0.483871     24.000000
 -0.451613  0.451613  0.516129     24.000000
  0.516129 -0.516129 -0.451613     24.000000
  0.483871 -0.483871 -0.419355     24.000000
  0.451613 -0.451613 -0.387097     24.000000
  0.419355 -0.419355 -0.354839     24.000000
  0.387097 -0.387097 -0.322581     24.000000
  0.354839 -0.354839 -0.290323     24.000000
  0.322581 -0.322581 -0.258065     24.000000
  0.290323 -0.290323 -0.225806     24.000000
  0.258065 -0.258065 -0.193548     24.000000
  0.225806 -0.225806 -0.161290     24.000000
  0.193548 -0.193548 -0.129032     24.000000
  0.161290 -0.161290 -0.096774     24.000000
  0.129032 -0.129032 -0.064516     24.000000
  0.096774 -0.096774 -0.032258     24.000000
  0.064516 -0.064516  0.000000     12.000000
  0.000000  0.000000  0.129032      6.000000
 -0.032258  0.032258  0.161290     24.000000
 -0.064516  0.064516  0.193548     24.000000
 -0.096774  0.096774  0.225806     24.000000
 -0.129032  0.129032  0.258065     24.000000
 -0.161290  0.161290  0.290323     24.000000
 -0.193548  0.193548  0.322581     24.000000
 -0.225806  0.225806  0.354839     24.000000
 -0.258065  0.258065  0.387097     24.000000
 -0.290323  0.290323  0.419355     24.000000
 -0.322581  0.322581  0.451613     24.000000
 -0.354839  0.354839  0.483871     24.000000
 -0.387097  0.387097  0.516129     24.000000
 -0.419355  0.419355  0.548387     24.000000
  0.548387 -0.548387 -0.419355     24.000000
  0.516129 -0.516129 -0.387097     24.000000
  0.483871 -0.483871 -0.354839     24.000000
  0.451613 -0.451613 -0.322581     24.000000
  0.419355 -0.419355 -0.290323     24.000000
  0.387097 -0.387097 -0.258065     24.000000
  0.354839 -0.354839 -0.225806     24.000000
  0.322581 -0.322581 -0.193548     24.000000
  0.290323 -0.290323 -0.161290     24.000000
  0.258065 -0.258065 -0.129032     24.000000
  0.225806 -0.225806 -0.096774     24.000000
  0.193548 -0.193548 -0.064516     24.000000
  0.161290 -0.161290 -0.032258     24.000000
  0.129032 -0.129032  0.000000     12.000000
  0.000000  0.000000  0.193548      6.000000
 -0.032258  0.032258  0.225806     24.000000
 -0.064516  0.064516  0.258065     24.000000
 -0.096774  0.096774  0.290323     24.000000
 -0.129032  0.129032  0.322581     24.000000
 -0.161290  0.161290  0.354839     24.000000
 -0.193548  0.193548  0.387097     24.000000
 -0.225806  0.225806  0.419355     24.000000
 -0.258065  0.258065  0.451613     24.000000
 -0.290323  0.290323  0.483871     24.000000
 -0.322581  0.322581  0.516129     24.000000
 -0.354839  0.354839  0.548387     24.000000
 -0.387097  0.387097  0.580645     24.000000
  0.580645 -0.580645 -0.387097     24.000000
  0.548387 -0.548387 -0.354839     24.000000
  0.516129 -0.516129 -0.322581     24.000000
  0.483871 -0.483871 -0.290323     24.000000
  0.451613 -0.451613 -0.258065     24.000000
  0.419355 -0.419355 -0.225806     24.000000
  0.387097 -0.387097 -0.193548     24.000000
  0.354839 -0.354839 -0.161290     24.000000
  0.322581 -0.322581 -0.129032     24.000000
  0.290323 -0.290323 -0.096774     24.000000
  0.258065 -0.258065 -0.064516     24.000000
  0.225806 -0.225806 -0.032258     24.000000
  0.193548 -0.193548  0.000000     12.000000
  0.000000  0.000000  0.258065      6.000000
 -0.032258  0.032258  0.290323     24.000000
 -0.064516  0.064516  0.322581     24.000000
 -0.096774  0.096774  0.354839     24.000000
 -0.129032  0.129032  0.387097     24.000000
 -0.161290  0.161290  0.419355     24.000000
 -0.193548  0.193548  0.451613     24.000000
 -0.225806  0.225806  0.483871     24.000000
 -0.258065  0.258065  0.516129     24.000000
 -0.290323  0.290323  0.548387     24.000000
 -0.322581  0.322581  0.580645     24.000000
 -0.354839  0.354839  0.612903     24.000000
  0.612903 -0.612903 -0.354839     24.000000
  0.580645 -0.580645 -0.322581     24.000000
  0.548387 -0.548387 -0.290323     24.000000
  0.516129 -0.516129 -0.258065     24.000000
  0.483871 -0.483871 -0.225806     24.000000
  0.451613 -0.451613 -0.193548     24.000000
  0.419355 -0.419355 -0.161290     24.000000
  0.387097 -0.387097 -0.129032     24.000000
  0.354839 -0.354839 -0.096774     24.000000
  0.322581 -0.322581 -0.064516     24.000000
  0.290323 -0.290323 -0.032258     24.000000
  0.258065 -0.258065  0.000000     12.000000
  0.000000  0.000000  0.322581      6.000000
 -0.032258  0.032258  0.354839     24.000000
 -0.064516  0.064516  0.387097     24.000000
 -0.096774  0.096774  0.419355     24.000000
 -0.129032  0.129032  0.451613     24.000000
 -0.161290  0.161290  0.483871     24.000000
 -0.193548  0.193548  0.516129     24.000000
 -0.225806  0.225806  0.548387     24.000000
 -0.258065  0.258065  0.580645     24.000000
 -0.290323  0.290323  0.612903     24.000000
 -0.322581  0.322581  0.645161     24.000000
  0.645161 -0.645161 -0.322581     24.000000
  0.612903 -0.612903 -0.290323     24.000000
  0.580645 -0.580645 -0.258065     24.000000
  0.548387 -0.548387 -0.225806     24.000000
  0.516129 -0.516129 -0.193548     24.000000
  0.483871 -0.483871 -0.161290     24.000000
  0.451613 -0.451613 -0.129032     24.000000
  0.419355 -0.419355 -0.096774     24.000000
  0.387097 -0.387097 -0.064516     24.000000
  0.354839 -0.354839 -0.032258     24.000000
  0.322581 -0.322581  0.000000     12.000000
  0.000000  0.000000  0.387097      6.000000
 -0.032258  0.032258  0.419355     24.000000
 -0.064516  0.064516  0.451613     24.000000
 -0.096774  0.096774  0.483871     24.000000
 -0.129032  0.129032  0.516129     24.000000
 -0.161290  0.161290  0.548387     24.000000
 -0.193548  0.193548  0.580645     24.000000
 -0.225806  0.225806  0.612903     24.000000
 -0.258065  0.258065  0.645161     24.000000
 -0.290323  0.290323  0.677419     24.000000
  0.677419 -0.677419 -0.290323     24.000000
  0.645161 -0.645161 -0.258065     24.000000
  0.612903 -0.612903 -0.225806     24.000000
  0.580645 -0.580645 -0.193548     24.000000
  0.548387 -0.548387 -0.161290     24.000000
  0.516129 -0.516129 -0.129032     24.000000
  0.483871 -0.483871 -0.096774     24.000000
  0.451613 -0.451613 -0.064516     24.000000
  0.419355 -0.419355 -0.032258     24.000000
  0.387097 -0.387097  0.000000     12.000000
  0.000000  0.000000  0.451613      6.000000
 -0.032258  0.032258  0.483871     24.000000
 -0.064516  0.064516  0.516129     24.000000
 -0.096774  0.096774  0.548387     24.000000
 -0.129032  0.129032  0.580645     24.000000
 -0.161290  0.161290  0.612903     24.000000
 -0.193548  0.193548  0.645161     24.000000
 -0.225806  0.225806  0.677419     24.000000
 -0.258065  0.258065  0.709677     24.000000
  0.709677 -0.709677 -0.258065     24.000000
  0.677419 -0.677419 -0.225806     24.000000
  0.645161 -0.645161 -0.193548     24.000000
  0.612903 -0.612903 -0.161290     24.000000
  0.580645 -0.580645 -0.129032     24.000000
  0.548387 -0.548387 -0.096774     24.000000
  0.516129 -0.516129 -0.064516     24.000000
  0.483871 -0.483871 -0.032258     24.000000
  0.451613 -0.451613  0.000000     12.000000
  0.000000  0.000000  0.516129      6.000000
 -0.032258  0.032258  0.548387     24.000000
 -0.064516  0.064516  0.580645     24.000000
 -0.096774  0.096774  0.612903     24.000000
 -0.129032  0.129032  0.645161     24.000000
 -0.161290  0.161290  0.677419     24.000000
 -0.193548  0.193548  0.709677     24.000000
 -0.225806  0.225806  0.741935     24.000000
  0.741935 -0.741935 -0.225806     24.000000
  0.709677 -0.709677 -0.193548     24.000000
  0.677419 -0.677419 -0.161290     24.000000
  0.645161 -0.645161 -0.129032     24.000000
  0.612903 -0.612903 -0.096774     24.000000
  0.580645 -0.580645 -0.064516     24.000000
  0.548387 -0.548387 -0.032258     24.000000
  0.516129 -0.516129  0.000000     12.000000
  0.000000  0.000000  0.580645      6.000000
 -0.032258  0.032258  0.612903     24.000000
 -0.064516  0.064516  0.645161     24.000000
 -0.096774  0.096774  0.677419     24.000000
 -0.129032  0.129032  0.709677     24.000000
 -0.161290  0.161290  0.741935     24.000000
 -0.193548  0.193548  0.774194     24.000000
  0.774194 -0.774194 -0.193548     24.000000
  0.741935 -0.741935 -0.161290     24.000000
  0.709677 -0.709677 -0.129032     24.000000
  0.677419 -0.677419 -0.096774     24.000000
  0.645161 -0.645161 -0.064516     24.000000
  0.612903 -0.612903 -0.032258     24.000000
  0.580645 -0.580645  0.000000     12.000000
  0.000000  0.000000  0.645161      6.000000
 -0.032258  0.032258  0.677419     24.000000
 -0.064516  0.064516  0.709677     24.000000
 -0.096774  0.096774  0.741935     24.000000
 -0.129032  0.129032  0.774194     24.000000
 -0.161290  0.161290  0.806452     24.000000
  0.806452 -0.806452 -0.161290     24.000000
  0.774194 -0.774194 -0.129032     24.000000
  0.741935 -0.741935 -0.096774     24.000000
  0.709677 -0.709677 -0.064516     24.000000
  0.677419 -0.677419 -0.032258     24.000000
  0.645161 -0.645161  0.000000     12.000000
  0.000000  0.000000  0.709677      6.000000
 -0.032258  0.032258  0.741935     24.000000
 -0.064516  0.064516  0.774194     24.000000
 -0.096774  0.096774  0.806452     24.000000
 -0.129032  0.129032  0.838710     24.000000
  0.838710 -0.838710 -0.129032     24.000000
  0.806452 -0.806452 -0.096774     24.000000
  0.774194 -0.774194 -0.064516     24.000000
  0.741935 -0.741935 -0.032258     24.000000
  0.709677 -0.709677  0.000000     12.000000
  0.000000  0.000000  0.774194      6.000000
 -0.032258  0.032258  0.806452     24.000000
 -0.064516  0.064516  0.838710     24.000000
 -0.096774  0.096774  0.870968     24.000000
  0.870968 -0.870968 -0.096774     24.000000
  0.838710 -0.838710 -0.064516     24.000000
  0.806452 -0.806452 -0.032258     24.000000
  0.774194 -0.774194  0.000000     12.000000
  0.000000  0.000000  0.838710      6.000000
 -0.032258  0.032258  0.870968     24.000000
 -0.064516  0.064516  0.903226     24.000000
  0.903226 -0.903226 -0.064516     24.000000
  0.870968 -0.870968 -0.032258     24.000000
  0.838710 -0.838710  0.000000     12.000000
  0.000000  0.000000  0.903226      6.000000
 -0.032258  0.032258  0.935484     24.000000
  0.935484 -0.935484 -0.032258     24.000000
  0.903226 -0.903226  0.000000     12.000000
  0.000000  0.000000  0.967742      6.000000
  0.967742 -0.967742  0.000000     12.000000
 -0.000000  0.064516  0.129032     24.000000
 -0.032258  0.096774  0.161290     48.000000
 -0.064516  0.129032  0.193548     48.000000
 -0.096774  0.161290  0.225806     48.000000
 -0.129032  0.193548  0.258065     48.000000
 -0.161290  0.225806  0.290323     48.000000
 -0.193548  0.258065  0.322581     48.000000
 -0.225806  0.290323  0.354839     48.000000
 -0.258065  0.322581  0.387097     48.000000
 -0.290323  0.354839  0.419355     48.000000
 -0.322581  0.387097  0.451613     48.000000
 -0.354839  0.419355  0.483871     48.000000
 -0.387097  0.451613  0.516129     48.000000
  0.580645 -0.516129 -0.451613     48.000000
 -0.000000  0.064516  0.193548     24.000000
 -0.032258  0.096774  0.225806     48.000000
 -0.064516  0.129032  0.258065     48.000000
 -0.096774  0.161290  0.290323     48.000000
 -0.129032  0.193548  0.322581     48.000000
 -0.161290  0.225806  0.354839     48.000000
 -0.193548  0.258065  0.387097     48.000000
 -0.225806  0.290323  0.419355     48.000000
 -0.258065  0.322581  0.451613     48.000000
 -0.290323  0.354839  0.483871     48.000000
 -0.322581  0.387097  0.516129     48.000000
 -0.354839  0.419355  0.548387     48.000000
  0.612903 -0.548387 -0.419355     48.000000
  0.580645 -0.516129 -0.387097     48.000000
  0.548387 -0.483871 -0.354839     48.000000
  0.516129 -0.451613 -0.322581     48.000000
  0.483871 -0.419355 -0.290323     48.000000
  0.451613 -0.387097 -0.258065     48.000000
  0.419355 -0.354839 -0.225806     48.000000
  0.387097 -0.322581 -0.193548     48.000000
  0.354839 -0.290323 -0.161290     48.000000
  0.322581 -0.258065 -0.129032     48.000000
  0.290323 -0.225806 -0.096774     48.000000
  0.258065 -0.193548 -0.064516     48.000000
  0.225806 -0.161290 -0.032258     48.000000
  0.193548 -0.129032 -0.000000     24.000000
  0.000000  0.064516  0.258065     24.000000
 -0.032258  0.096774  0.290323     48.000000
 -0.064516  0.129032  0.322581     48.000000
 -0.096774  0.161290  0.354839     48.000000
 -0.129032  0.193548  0.387097     48.000000
 -0.161290  0.225806  0.419355     48.000000
 -0.193548  0.258065  0.451613     48.000000
 -0.225806  0.290323  0.483871     48.000000
 -0.258065  0.322581  0.516129     48.000000
 -0.290323  0.354839  0.548387     48.000000
 -0.322581  0.387097  0.580645     48.000000
  0.645161 -0.580645 -0.387097     48.000000
  0.612903 -0.548387 -0.354839     48.000000
  0.580645 -0.516129 -0.322581     48.000000
  0.548387 -0.483871 -0.290323     48.000000
  0.516129 -0.451613 -0.258065     48.000000
  0.483871 -0.419355 -0.225806     48.000000
  0.451613 -0.387097 -0.193548     48.000000
  0.419355 -0.354839 -0.161290     48.000000
  0.387097 -0.322581 -0.129032     48.000000
  0.354839 -0.290323 -0.096774     48.000000
  0.322581 -0.258065 -0.064516     48.000000
  0.290323 -0.225806 -0.032258     48.000000
  0.258065 -0.193548  0.000000     24.000000
  0.000000  0.064516  0.322581     24.000000
 -0.032258  0.096774  0.354839     48.000000
 -0.064516  0.129032  0.387097     48.000000
 -0.096774  0.161290  0.419355     48.000000
 -0.129032  0.193548  0.451613     48.000000
 -0.161290  0.225806  0.483871     48.000000
 -0.193548  0.258065  0.516129     48.000000
 -0.225806  0.290323  0.548387     48.000000
 -0.258065  0.322581  0.580645     48.000000
 -0.290323  0.354839  0.612903     48.000000
  0.677419 -0.612903 -0.354839     48.000000
  0.645161 -0.580645 -0.322581     48.000000
  0.612903 -0.548387 -0.290323     48.000000
  0.580645 -0.516129 -0.258065     48.000000
  0.548387 -0.483871 -0.225806     48.000000
  0.516129 -0.451613 -0.193548     48.000000
  0.483871 -0.419355 -0.161290     48.000000
  0.451613 -0.387097 -0.129032     48.000000
  0.419355 -0.354839 -0.096774     48.000000
  0.387097 -0.322581 -0.064516     48.000000
  0.354839 -0.290323 -0.032258     48.000000
  0.322581 -0.258065  0.000000     24.000000
  0.000000  0.064516  0.387097     24.000000
 -0.032258  0.096774  0.419355     48.000000
 -0.064516  0.129032  0.451613     48.000000
 -0.096774  0.161290  0.483871     48.000000
 -0.129032  0.193548  0.516129     48.000000
 -0.161290  0.225806  0.548387     48.000000
 -0.193548  0.258065  0.580645     48.000000
 -0.225806  0.290323  0.612903     48.000000
 -0.258065  0.322581  0.645161     48.000000
  0.709677 -0.645161 -0.322581     48.000000
  0.677419 -0.612903 -0.290323     48.000000
  0.645161 -0.580645 -0.258065     48.000000
  0.612903 -0.548387 -0.225806     48.000000
  0.580645 -0.516129 -0.193548     48.000000
  0.548387 -0.483871 -0.161290     48.000000
  0.516129 -0.451613 -0.129032     48.000000
  0.483871 -0.419355 -0.096774     48.000000
  0.451613 -0.387097 -0.064516     48.000000
  0.419355 -0.354839 -0.032258     48.000000
  0.387097 -0.322581 -0.000000     24.000000
 -0.000000  0.064516  0.451613     24.000000
 -0.032258  0.096774  0.483871     48.000000
 -0.064516  0.129032  0.516129     48.000000
 -0.096774  0.161290  0.548387     48.000000
 -0.129032  0.193548  0.580645     48.000000
 -0.161290  0.225806  0.612903     48.000000
 -0.193548  0.258065  0.645161     48.000000
 -0.225806  0.290323  0.677419     48.000000
  0.741935 -0.677419 -0.290323     48.000000
  0.709677 -0.645161 -0.258065     48.000000
  0.677419 -0.612903 -0.225806     48.000000
  0.645161 -0.580645 -0.193548     48.000000
  0.612903 -0.548387 -0.161290     48.000000
  0.580645 -0.516129 -0.129032     48.000000
  0.548387 -0.483871 -0.096774     48.000000
  0.516129 -0.451613 -0.064516     48.000000
  0.483871 -0.419355 -0.032258     48.000000
  0.451613 -0.387097  0.000000     24.000000
  0.000000  0.064516  0.516129     24.000000
[...]

 k-point 800 :      -0.3226    0.3871    0.1935
  band No.  band energies     occupation 
      1      -2.7069      2.00000
      2      -1.3211      2.00000
      3       1.5781      2.00000
      4       2.5438      2.00000
      5       9.2165      0.00000
      6       9.4906      0.00000
      7      10.9337      0.00000
      8      11.6906      0.00000
      9      14.1529      0.00000
     10      16.5959      0.00000
     11      17.7218      0.00000
     12      19.8103      0.00000
     13      20.7384      0.00000
     14      22.5683      0.00000
     15      22.7113      0.00000
     16      23.7265      0.00000
     17      23.8670      0.00000
     18      25.4159      0.00000
     19      26.0397      0.00000
     20      26.3681      0.00000

 k-point 801 :      -0.3871    0.4194    0.1935
  band No.  band energies     occupation 
      1      -2.9193      2.00000
      2      -1.0845      2.00000
      3       1.7614      2.00000
      4       2.5028      2.00000
      5       8.8453      0.00000
      6       9.1993      0.00000
      7      10.3624      0.00000
      8      13.1066      0.00000
      9      14.3970      0.00000
     10      16.1233      0.00000
     11      18.3644      0.00000
     12      19.7563      0.00000
     13      20.3624      0.00000
     14      21.3152      0.00000
     15      22.0736      0.00000
     16      23.9795      0.00000
     17      25.0021      0.00000
     18      25.5431      0.00000
     19      26.1138      0.00000
     20      26.3453      0.00000

 k-point 802 :      -0.3548    0.4194    0.1935
  band No.  band energies     occupation 
      1      -2.6981      2.00000
      2      -1.2976      2.00000
      3       1.6816      2.00000
      4       2.3852      2.00000
      5       9.0380      0.00000
      6       9.5636      0.00000
      7      10.2745      0.00000
      8      12.4029      0.00000
      9      14.6572      0.00000
     10      16.3760      0.00000
     11      18.0916      0.00000
     12      19.7002      0.00000
     13      20.6294      0.00000
     14      22.0377      0.00000
     15      22.2666      0.00000
     16      23.9664      0.00000
     17      24.7918      0.00000
     18      25.1736      0.00000
     19      25.9096      0.00000
     20      26.0873      0.00000

 k-point 803 :      -0.3226    0.4194    0.1935
  band No.  band energies     occupation 
      1      -2.5332      2.00000
      2      -1.4568      2.00000
      3       1.6205      2.00000
      4       2.3307      2.00000
      5       9.1292      0.00000
      6       9.8802      0.00000
      7      10.4036      0.00000
      8      11.7324      0.00000
      9      14.7714      0.00000
     10      16.6128      0.00000
     11      17.8213      0.00000
     12      19.7078      0.00000
     13      20.7610      0.00000
     14      22.5338      0.00000
     15      22.7347      0.00000
     16      23.6928      0.00000
     17      24.5028      0.00000
     18      24.9357      0.00000
     19      25.6652      0.00000
     20      26.0993      0.00000

 k-point 804 :      -0.2903    0.4194    0.1935
  band No.  band energies     occupation 
      1      -2.4962      2.00000
      2      -1.4911      2.00000
      3       1.5800      2.00000
      4       2.3411      2.00000
      5       9.2202      0.00000
      6       9.8761      0.00000
      7      10.8089      0.00000
      8      11.2084      0.00000
      9      14.7701      0.00000
     10      16.5305      0.00000
     11      17.8967      0.00000
     12      19.7359      0.00000
     13      20.7740      0.00000
     14      22.4892      0.00000
     15      23.1567      0.00000
     16      23.7827      0.00000
     17      24.0353      0.00000
     18      25.0436      0.00000
     19      25.6113      0.00000
     20      26.0213      0.00000

 k-point 805 :      -0.2581    0.4194    0.1935
  band No.  band energies     occupation 
      1      -2.6108      2.00000
      2      -1.3782      2.00000
      3       1.5689      2.00000
      4       2.4104      2.00000
      5       9.3210      0.00000
      6       9.7765      0.00000
      7      10.4495      0.00000
      8      11.6367      0.00000
      9      14.6525      0.00000
     10      16.2089      0.00000
     11      18.2400      0.00000
     12      19.7824      0.00000
     13      20.6577      0.00000
     14      22.1334      0.00000
     15      22.8575      0.00000
     16      23.9807      0.00000
     17      24.3972      0.00000
     18      25.2049      0.00000
     19      25.7187      0.00000
     20      25.8987      0.00000

 k-point 806 :      -0.2258    0.4194    0.1935
  band No.  band energies     occupation 
      1      -2.8107      2.00000
      2      -1.1868      2.00000
      3       1.5977      2.00000
      4       2.5291      2.00000
      5       9.4238      0.00000
      6       9.5382      0.00000
      7      10.0839      0.00000
      8      12.3093      0.00000
      9      14.3835      0.00000
     10      15.9267      0.00000
     11      18.5407      0.00000
     12      19.8773      0.00000
     13      20.3793      0.00000
     14      21.9485      0.00000
     15      22.1217      0.00000
     16      24.2633      0.00000
     17      24.7738      0.00000
     18      25.3873      0.00000
     19      25.6798      0.00000
     20      26.2433      0.00000

 k-point 807 :      -0.3548    0.4516    0.1935
  band No.  band energies     occupation 
      1      -2.5536      2.00000
      2      -1.4435      2.00000
      3       1.7949      2.00000
      4       2.2377      2.00000
      5       8.8439      0.00000
      6       9.0558      0.00000
      7      10.8420      0.00000
      8      12.4986      0.00000
      9      15.0879      0.00000
     10      16.5424      0.00000
     11      17.9744      0.00000
     12      19.3152      0.00000
     13      21.0166      0.00000
     14      22.0412      0.00000
     15      22.3749      0.00000
     16      23.7344      0.00000
     17      24.2145      0.00000
     18      25.4099      0.00000
     19      25.8675      0.00000
     20      26.2680      0.00000

 k-point 808 :      -0.3226    0.4516    0.1935
  band No.  band energies     occupation 
      1      -2.3564      2.00000
      2      -1.6241      2.00000
      3       1.7324      2.00000
      4       2.1516      2.00000
      5       9.0089      0.00000
      6       9.5147      0.00000
      7      10.7330      0.00000
      8      11.8123      0.00000
      9      15.3282      0.00000
     10      16.5277      0.00000
     11      17.9773      0.00000
     12      19.1811      0.00000
     13      21.2487      0.00000
     14      22.4335      0.00000
     15      22.7700      0.00000
     16      23.6822      0.00000
     17      24.1740      0.00000
     18      25.0161      0.00000
     19      25.4265      0.00000
     20      26.1870      0.00000

 k-point 809 :      -0.2903    0.4516    0.1935
  band No.  band energies     occupation 
      1      -2.2865      2.00000
      2      -1.6846      2.00000
      3       1.6507      2.00000
      4       2.1711      2.00000
      5       9.1045      0.00000
      6      10.0289      0.00000
      7      10.6915      0.00000
      8      11.1777      0.00000
      9      15.3391      0.00000
     10      16.4142      0.00000
     11      18.0734      0.00000
     12      19.2257      0.00000
     13      21.2757      0.00000
     14      22.3354      0.00000
     15      23.3485      0.00000
     16      23.7443      0.00000
     17      24.2848      0.00000
     18      24.8175      0.00000
     19      24.9660      0.00000
     20      26.1129      0.00000

 k-point 810 :      -0.2581    0.4516    0.1935
  band No.  band energies     occupation 
      1      -2.4062      2.00000
      2      -1.5664      2.00000
      3       1.5869      2.00000
      4       2.2655      2.00000
      5       9.2113      0.00000
      6      10.1691      0.00000
      7      10.6230      0.00000
      8      11.0375      0.00000
      9      15.0985      0.00000
     10      16.2780      0.00000
     11      18.2070      0.00000
     12      19.4426      0.00000
     13      21.0538      0.00000
     14      22.1645      0.00000
     15      23.5079      0.00000
     16      23.7548      0.00000
     17      24.4418      0.00000
     18      24.7101      0.00000
     19      25.2292      0.00000
     20      25.9707      0.00000

 k-point 811 :      -0.3226    0.4839    0.1935
  band No.  band energies     occupation 
      1      -2.1822      2.00000
      2      -1.8105      2.00000
      3       1.8837      2.00000
      4       2.0309      2.00000
      5       8.8778      0.00000
      6       8.9481      0.00000
      7      11.3616      0.00000
      8      11.9152      0.00000
      9      15.7557      0.00000
     10      16.3361      0.00000
     11      18.1862      0.00000
     12      18.7399      0.00000
     13      21.6956      0.00000
     14      22.2812      0.00000
     15      22.7639      0.00000
     16      23.4800      0.00000
     17      23.8633      0.00000
     18      24.5434      0.00000
     19      26.1348      0.00000
     20      26.3022      0.00000

 k-point 812 :      -0.2903    0.4839    0.1935
  band No.  band energies     occupation 
      1      -2.1033      2.00000
      2      -1.8716      2.00000
      3       1.7792      2.00000
      4       2.0430      2.00000
      5       8.9994      0.00000
      6       9.4940      0.00000
      7      11.2255      0.00000
      8      11.2798      0.00000
      9      15.7885      0.00000
     10      16.2517      0.00000
     11      18.2535      0.00000
     12      18.7676      0.00000
     13      21.7306      0.00000
     14      22.1708      0.00000
     15      23.4251      0.00000
     16      23.4737      0.00000
     17      24.0378      0.00000
     18      24.3964      0.00000
     19      25.5344      0.00000
     20      26.1930      0.00000

 k-point 813 :      -0.3226    0.4516    0.2258
  band No.  band energies     occupation 
      1      -2.4774      2.00000
      2      -1.4972      2.00000
      3       1.6618      2.00000
      4       2.2234      2.00000
      5       9.5309      0.00000
      6       9.5993      0.00000
      7      10.2276      0.00000
      8      11.7114      0.00000
      9      15.0911      0.00000
     10      16.4149      0.00000
     11      18.0970      0.00000
     12      19.3889      0.00000
     13      20.9959      0.00000
     14      22.2496      0.00000
     15      22.8521      0.00000
     16      23.7829      0.00000
     17      24.8426      0.00000
     18      25.0856      0.00000
     19      25.3022      0.00000
     20      25.7286      0.00000

 k-point 814 :      -0.2903    0.4516    0.2258
  band No.  band energies     occupation 
      1      -2.3140      2.00000
      2      -1.6500      2.00000
      3       1.6629      2.00000
      4       2.1300      2.00000
      5       9.5946      0.00000
      6       9.8606      0.00000
      7      10.4248      0.00000
      8      11.0843      0.00000
      9      15.3329      0.00000
     10      16.4776      0.00000
     11      18.0285      0.00000
     12      19.2190      0.00000
     13      21.2224      0.00000
     14      22.3459      0.00000
     15      23.4265      0.00000
     16      23.7443      0.00000
     17      24.5270      0.00000
     18      24.9152      0.00000
     19      25.0120      0.00000
     20      25.6327      0.00000

 k-point 815 :      -0.2903    0.4839    0.2258
  band No.  band energies     occupation 
      1      -2.1445      2.00000
      2      -1.8167      2.00000
      3       1.7867      2.00000
      4       1.9743      2.00000
      5       9.5508      0.00000
      6       9.5890      0.00000
      7      10.6371      0.00000
      8      11.1490      0.00000
      9      15.7647      0.00000
     10      16.3146      0.00000
     11      18.2268      0.00000
     12      18.7774      0.00000
     13      21.6377      0.00000
     14      22.1887      0.00000
     15      23.5507      0.00000
     16      23.7790      0.00000
     17      24.2468      0.00000
     18      24.4498      0.00000
     19      25.3824      0.00000
     20      25.6226      0.00000

 k-point 816 :      -0.2581    0.4839    0.2258
  band No.  band energies     occupation 
      1      -2.1175      2.00000
      2      -1.8373      2.00000
      3       1.7507      2.00000
      4       1.9786      2.00000
      5       9.6384      0.00000
      6       9.9991      0.00000
      7      10.5774      0.00000
      8      10.6764      0.00000
      9      15.7756      0.00000
     10      16.2866      0.00000
     11      18.2488      0.00000
     12      18.7886      0.00000
     13      21.6456      0.00000
     14      22.1390      0.00000
     15      23.7531      0.00000
     16      24.0234      0.00000
     17      24.3545      0.00000
     18      24.4171      0.00000
     19      24.9758      0.00000
     20      25.5029      0.00000


--------------------------------------------------------------------------------------------------------


 soft charge-density along one line, spin component           1
         0         1         2         3         4         5         6         7         8         9
 total charge-density along one line
 
 pseudopotential strength for first ion, spin component:           1
 18.437  25.723  -0.000  -0.000  -0.000  -0.000  -0.000  -0.000
 25.723  35.893  -0.000  -0.000  -0.000  -0.000  -0.000  -0.000
 -0.000  -0.000   4.181  -0.000  -0.000   7.791  -0.000  -0.000
 -0.000  -0.000  -0.000   4.181  -0.000  -0.000   7.791  -0.000
 -0.000  -0.000  -0.000  -0.000   4.181  -0.000  -0.000   7.791
 -0.000  -0.000   7.791  -0.000  -0.000  14.528  -0.000  -0.000
 -0.000  -0.000  -0.000   7.791  -0.000  -0.000  14.528  -0.000
 -0.000  -0.000  -0.000  -0.000   7.791  -0.000  -0.000  14.528
 total augmentation occupancy for first ion, spin component:           1
  5.529  -2.065   0.000   0.000   0.000   0.000   0.000   0.000
 -2.065   0.888   0.000   0.000   0.000   0.000   0.000   0.000
  0.000   0.000   2.903   0.000  -0.000  -0.649   0.000   0.000
  0.000   0.000  -0.000   2.903   0.000   0.000  -0.649  -0.000
  0.000   0.000   0.000   0.000   2.903   0.000   0.000  -0.649
  0.000   0.000  -0.649  -0.000  -0.000   0.153   0.000   0.000
  0.000  -0.000  -0.000  -0.649   0.000   0.000   0.153   0.000
  0.000  -0.000  -0.000   0.000  -0.649   0.000   0.000   0.153


------------------------ aborting loop because EDIFF is reached ----------------------------------------


    CHARGE:  cpu time    0.06: real time    0.06
    FORLOC:  cpu time    0.00: real time    0.00
    FORNL :  cpu time    0.18: real time    0.18
    STRESS:  cpu time    0.72: real time    0.72
    FORCOR:  cpu time    0.00: real time    0.00
    FORHAR:  cpu time    0.00: real time    0.00
    MIXING:  cpu time    0.00: real time    0.00

  FORCE on cell =-STRESS in cart. coord.  units (eV):
  Direction    XX          YY          ZZ          XY          YZ          ZX
  --------------------------------------------------------------------------------------
  Alpha Z     3.29319     3.29319     3.29319
  Ewald     -75.64845   -75.64845   -75.64845     0.00000     0.00000    -0.00000
  Hartree     5.05687     5.05687     5.05687     0.00000     0.00000     0.00000
  E(xc)     -25.24586   -25.24586   -25.24586    -0.00001    -0.00001    -0.00001
  Local     -29.50963   -29.50963   -29.50963     0.00007     0.00007     0.00007
  n-local    78.29381    79.94546    74.12340     2.26407    -1.29173     0.47467
  augment   -11.64975   -11.64975   -11.64975    -0.00007    -0.00007    -0.00007
  Kinetic    58.53955    55.71248    54.49120     3.54014    -0.73982     1.06304
  Fock        0.00000     0.00000     0.00000     0.00000     0.00000     0.00000
  -------------------------------------------------------------------------------------
  Total      -0.00166    -0.00166    -0.00166     0.00000     0.00000    -0.00000
  in kB      -0.06485    -0.06485    -0.06485     0.00000     0.00000    -0.00000
  external pressure =       -0.06 kB  Pullay stress =        0.00 kB


 VOLUME and BASIS-vectors are now :
 -----------------------------------------------------------------------------
  energy-cutoff  :      500.00
  volume of cell :       40.89
      direct lattice vectors                 reciprocal lattice vectors
     0.000000000  2.734360000  2.734360000    -0.182858146  0.182858146  0.182858146
     2.734360000  0.000000000  2.734360000     0.182858146 -0.182858146  0.182858146
     2.734360000  2.734360000  0.000000000     0.182858146  0.182858146 -0.182858146

  length of vectors
     3.866968996  3.866968996  3.866968996     0.316719599  0.316719599  0.316719599


 FORCES acting on ions
    electron-ion (+dipol)            ewald-force                    non-local-force                 convergence-correction
 -----------------------------------------------------------------------------------------------
   -.124E-05 -.124E-05 -.932E-06   -.384E-14 -.429E-14 -.488E-14   -.902E-16 -.486E-16 -.971E-16   0.109E-08 0.109E-08 0.109E-08
   -.453E-05 -.453E-05 -.433E-05   0.393E-14 0.441E-14 0.496E-14   0.902E-16 0.486E-16 0.625E-16   -.109E-08 -.109E-08 -.109E-08
 -----------------------------------------------------------------------------------------------
   -.577E-05 -.577E-05 -.526E-05   0.877E-16 0.121E-15 0.790E-16   0.000E+00 0.000E+00 -.347E-16   0.143E-11 0.143E-11 0.142E-11
 
 
 POSITION                                       TOTAL-FORCE (eV/Angst)
 -----------------------------------------------------------------------------------
      0.00000      0.00000      0.00000        -0.000000     -0.000000     -0.000000
      1.36718      1.36718      1.36718         0.000000      0.000000      0.000000
 -----------------------------------------------------------------------------------
    total drift:                               -0.000006     -0.000006     -0.000005


--------------------------------------------------------------------------------------------------------



  FREE ENERGIE OF THE ION-ELECTRON SYSTEM (eV)
  ---------------------------------------------------
  free  energy   TOTEN  =       -10.84993044 eV

  energy  without entropy=      -10.84993044  energy(sigma->0) =      -10.84993044
 


--------------------------------------------------------------------------------------------------------


    POTLOK:  cpu time    0.00: real time    0.00


--------------------------------------------------------------------------------------------------------


 writing wavefunctions
     LOOP+:  cpu time   60.21: real time   60.43
    4ORBIT:  cpu time    0.00: real time    0.00
 BZINTS: Fermi energy:  5.682813;  8.000000 electrons
         Band energy:   4.919083;  BLOECHL correction:  0.000000

 total amount of memory used by VASP on root node    63521. kBytes
========================================================================

   base      :      30000. kBytes
   nonl-proj :      14422. kBytes
   fftplans  :        245. kBytes
   grid      :        312. kBytes
   one-center:          3. kBytes
   wavefun   :      18539. kBytes
 
  
  
 General timing and accounting informations for this job:
 ========================================================
  
                  Total CPU time used (sec):       64.000
                            User time (sec):       62.812
                          System time (sec):        1.188
                         Elapsed time (sec):       64.273
  
                   Maximum memory used (kb):      113568.
                   Average memory used (kb):           0.
  
                          Minor page faults:        29121
                          Major page faults:            0
                 Voluntary context switches:         2075
