<?xml version="1.0" encoding="ISO-8859-1"?>
<modeling>
 <generator>
  <i name="program" type="string">vasp </i>
  <i name="version" type="string">5.3.3  </i>
  <i name="subversion" type="string">18Dez12 (build Apr 06 2015 16:58:45) complex                          parallel </i>
  <i name="platform" type="string">LinuxIFC </i>
  <i name="date" type="string">2015 04 20 </i>
  <i name="time" type="string">10:12:06 </i>
 </generator>
 <incar>
  <i type="string" name="SYSTEM"> bulk	</i>
  <i type="int" name="ISTART">     0</i>
  <i type="string" name="PREC">high</i>
  <i type="string" name="ALGO"> normal</i>
  <i type="int" name="ISPIN">     1</i>
  <i type="int" name="ICHARG">     2</i>
  <i type="int" name="NELM">   100</i>
  <i type="int" name="NELMIN">     8</i>
  <i name="EDIFF">      0.00000100</i>
  <i name="EDIFFG">      0.00000100</i>
  <i name="ENCUT">    500.00000000</i>
  <i type="int" name="NBANDS">    20</i>
  <i name="POTIM">      0.05000000</i>
  <i type="int" name="ISMEAR">    -5</i>
  <i type="logical" name="LWAVE"> T  </i>
  <i type="logical" name="LCHARG"> T  </i>
  <i type="int" name="NELM">   100</i>
  <i type="string" name="GGA"> PE</i>
 </incar>
 <kpoints>
  <generation param="Gamma">
   <v type="int" name="divisions">      31       31       31 </v>
   <v name="usershift">      0.00000000       0.00000000       0.00000000 </v>
   <v name="genvec1">      0.03225806       0.00000000       0.00000000 </v>
   <v name="genvec2">      0.00000000       0.03225806       0.00000000 </v>
   <v name="genvec3">      0.00000000       0.00000000       0.03225806 </v>
   <v name="shift">      0.00000000       0.00000000       0.00000000 </v>
  </generation>
  <varray name="kpointlist" >
   <v>       0.00000000       0.00000000       0.00000000 </v>
   <v>       0.03225806       0.00000000       0.00000000 </v>
   <v>       0.06451613       0.00000000       0.00000000 </v>
   <v>       0.09677419       0.00000000       0.00000000 </v>
   <v>       0.12903226       0.00000000       0.00000000 </v>
   <v>       0.16129032       0.00000000       0.00000000 </v>
   <v>       0.19354839       0.00000000       0.00000000 </v>
   <v>       0.22580645       0.00000000       0.00000000 </v>
   <v>       0.25806452       0.00000000       0.00000000 </v>
   <v>       0.29032258       0.00000000       0.00000000 </v>
   <v>       0.32258065       0.00000000       0.00000000 </v>
   <v>       0.35483871       0.00000000       0.00000000 </v>
   <v>       0.38709677       0.00000000       0.00000000 </v>
   <v>       0.41935484       0.00000000       0.00000000 </v>
   <v>       0.45161290       0.00000000       0.00000000 </v>
   <v>       0.48387097       0.00000000       0.00000000 </v>
   <v>       0.03225806       0.03225806       0.00000000 </v>
   <v>       0.06451613       0.03225806       0.00000000 </v>
   <v>       0.09677419       0.03225806       0.00000000 </v>
   <v>       0.12903226       0.03225806       0.00000000 </v>
   <v>       0.16129032       0.03225806       0.00000000 </v>
   <v>       0.19354839       0.03225806       0.00000000 </v>
   <v>       0.22580645       0.03225806       0.00000000 </v>
   <v>       0.25806452       0.03225806       0.00000000 </v>
   <v>       0.29032258       0.03225806       0.00000000 </v>
   <v>       0.32258065       0.03225806       0.00000000 </v>
   <v>       0.35483871       0.03225806       0.00000000 </v>
   <v>       0.38709677       0.03225806       0.00000000 </v>
   <v>       0.41935484       0.03225806       0.00000000 </v>
   <v>       0.45161290       0.03225806       0.00000000 </v>
   <v>       0.48387097       0.03225806       0.00000000 </v>
   <v>      -0.48387097       0.03225806       0.00000000 </v>
   <v>      -0.45161290       0.03225806       0.00000000 </v>
   <v>      -0.41935484       0.03225806       0.00000000 </v>
   <v>      -0.38709677       0.03225806       0.00000000 </v>
   <v>      -0.35483871       0.03225806       0.00000000 </v>
   <v>      -0.32258065       0.03225806       0.00000000 </v>
   <v>      -0.29032258       0.03225806       0.00000000 </v>
   <v>      -0.25806452       0.03225806       0.00000000 </v>
   <v>      -0.22580645       0.03225806       0.00000000 </v>
   <v>      -0.19354839       0.03225806       0.00000000 </v>
   <v>      -0.16129032       0.03225806       0.00000000 </v>
   <v>      -0.12903226       0.03225806       0.00000000 </v>
   <v>      -0.09677419       0.03225806       0.00000000 </v>
   <v>      -0.06451613       0.03225806       0.00000000 </v>
   <v>      -0.03225806       0.03225806       0.00000000 </v>
   <v>       0.06451613       0.06451613       0.00000000 </v>
   <v>       0.09677419       0.06451613       0.00000000 </v>
   <v>       0.12903226       0.06451613       0.00000000 </v>
   <v>       0.16129032       0.06451613       0.00000000 </v>
   <v>       0.19354839       0.06451613       0.00000000 </v>
   <v>       0.22580645       0.06451613       0.00000000 </v>
   <v>       0.25806452       0.06451613       0.00000000 </v>
   <v>       0.29032258       0.06451613       0.00000000 </v>
   <v>       0.32258065       0.06451613       0.00000000 </v>
   <v>       0.35483871       0.06451613       0.00000000 </v>
   <v>       0.38709677       0.06451613       0.00000000 </v>
   <v>       0.41935484       0.06451613       0.00000000 </v>
   <v>       0.45161290       0.06451613       0.00000000 </v>
   <v>       0.48387097       0.06451613       0.00000000 </v>
   <v>      -0.48387097       0.06451613       0.00000000 </v>
   <v>      -0.45161290       0.06451613       0.00000000 </v>
   <v>      -0.41935484       0.06451613       0.00000000 </v>
   <v>      -0.38709677       0.06451613       0.00000000 </v>
   <v>      -0.35483871       0.06451613       0.00000000 </v>
   <v>      -0.32258065       0.06451613       0.00000000 </v>
   <v>      -0.29032258       0.06451613       0.00000000 </v>
   <v>      -0.25806452       0.06451613       0.00000000 </v>
   <v>      -0.22580645       0.06451613       0.00000000 </v>
   <v>      -0.19354839       0.06451613       0.00000000 </v>
   <v>      -0.16129032       0.06451613       0.00000000 </v>
   <v>      -0.12903226       0.06451613       0.00000000 </v>
   <v>      -0.09677419       0.06451613       0.00000000 </v>
   <v>      -0.06451613       0.06451613       0.00000000 </v>
   <v>       0.09677419       0.09677419       0.00000000 </v>
   <v>       0.12903226       0.09677419       0.00000000 </v>
   <v>       0.16129032       0.09677419       0.00000000 </v>
   <v>       0.19354839       0.09677419       0.00000000 </v>
   <v>       0.22580645       0.09677419       0.00000000 </v>
   <v>       0.25806452       0.09677419       0.00000000 </v>
   <v>       0.29032258       0.09677419       0.00000000 </v>
   <v>       0.32258065       0.09677419       0.00000000 </v>
   <v>       0.35483871       0.09677419       0.00000000 </v>
   <v>       0.38709677       0.09677419       0.00000000 </v>
   <v>       0.41935484       0.09677419       0.00000000 </v>
   <v>       0.45161290       0.09677419       0.00000000 </v>
   <v>       0.48387097       0.09677419       0.00000000 </v>
   <v>      -0.48387097       0.09677419       0.00000000 </v>
   <v>      -0.45161290       0.09677419       0.00000000 </v>
   <v>      -0.41935484       0.09677419       0.00000000 </v>
   <v>      -0.38709677       0.09677419       0.00000000 </v>
   <v>      -0.35483871       0.09677419       0.00000000 </v>
   <v>      -0.32258065       0.09677419       0.00000000 </v>
   <v>      -0.29032258       0.09677419       0.00000000 </v>
   <v>      -0.25806452       0.09677419       0.00000000 </v>
   <v>      -0.22580645       0.09677419       0.00000000 </v>
   <v>      -0.19354839       0.09677419       0.00000000 </v>
   <v>      -0.16129032       0.09677419       0.00000000 </v>
   <v>      -0.12903226       0.09677419       0.00000000 </v>
   <v>      -0.09677419       0.09677419       0.00000000 </v>
   <v>       0.12903226       0.12903226       0.00000000 </v>
   <v>       0.16129032       0.12903226       0.00000000 </v>
   <v>       0.19354839       0.12903226       0.00000000 </v>
   <v>       0.22580645       0.12903226       0.00000000 </v>
   <v>       0.25806452       0.12903226       0.00000000 </v>
   <v>       0.29032258       0.12903226       0.00000000 </v>
   <v>       0.32258065       0.12903226       0.00000000 </v>
   <v>       0.35483871       0.12903226       0.00000000 </v>
   <v>       0.38709677       0.12903226       0.00000000 </v>
   <v>       0.41935484       0.12903226       0.00000000 </v>
   <v>       0.45161290       0.12903226       0.00000000 </v>
   <v>       0.48387097       0.12903226       0.00000000 </v>
   <v>      -0.48387097       0.12903226       0.00000000 </v>
   <v>      -0.45161290       0.12903226       0.00000000 </v>
   <v>      -0.41935484       0.12903226       0.00000000 </v>
   <v>      -0.38709677       0.12903226       0.00000000 </v>
   <v>      -0.35483871       0.12903226       0.00000000 </v>
   <v>      -0.32258065       0.12903226       0.00000000 </v>
   <v>      -0.29032258       0.12903226       0.00000000 </v>
   <v>      -0.25806452       0.12903226       0.00000000 </v>
   <v>      -0.22580645       0.12903226       0.00000000 </v>
   <v>      -0.19354839       0.12903226       0.00000000 </v>
   <v>      -0.16129032       0.12903226       0.00000000 </v>
   <v>      -0.12903226       0.12903226       0.00000000 </v>
   <v>       0.16129032       0.16129032       0.00000000 </v>
   <v>       0.19354839       0.16129032       0.00000000 </v>
   <v>       0.22580645       0.16129032       0.00000000 </v>
   <v>       0.25806452       0.16129032       0.00000000 </v>
   <v>       0.29032258       0.16129032       0.00000000 </v>
   <v>       0.32258065       0.16129032       0.00000000 </v>
   <v>       0.35483871       0.16129032       0.00000000 </v>
   <v>       0.38709677       0.16129032       0.00000000 </v>
   <v>       0.41935484       0.16129032       0.00000000 </v>
   <v>       0.45161290       0.16129032       0.00000000 </v>
   <v>       0.48387097       0.16129032       0.00000000 </v>
   <v>      -0.48387097       0.16129032       0.00000000 </v>
   <v>      -0.45161290       0.16129032       0.00000000 </v>
   <v>      -0.41935484       0.16129032       0.00000000 </v>
   <v>      -0.38709677       0.16129032       0.00000000 </v>
   <v>      -0.35483871       0.16129032       0.00000000 </v>
   <v>      -0.32258065       0.16129032       0.00000000 </v>
   <v>      -0.29032258       0.16129032       0.00000000 </v>
   <v>      -0.25806452       0.16129032       0.00000000 </v>
   <v>      -0.22580645       0.16129032       0.00000000 </v>
   <v>      -0.19354839       0.16129032       0.00000000 </v>
   <v>      -0.16129032       0.16129032       0.00000000 </v>
   <v>       0.19354839       0.19354839       0.00000000 </v>
   <v>       0.22580645       0.19354839       0.00000000 </v>
   <v>       0.25806452       0.19354839       0.00000000 </v>
   <v>       0.29032258       0.19354839       0.00000000 </v>
   <v>       0.32258065       0.19354839       0.00000000 </v>
   <v>       0.35483871       0.19354839       0.00000000 </v>
   <v>       0.38709677       0.19354839       0.00000000 </v>
   <v>       0.41935484       0.19354839       0.00000000 </v>
   <v>       0.45161290       0.19354839       0.00000000 </v>
   <v>       0.48387097       0.19354839       0.00000000 </v>
   <v>      -0.48387097       0.19354839       0.00000000 </v>
   <v>      -0.45161290       0.19354839       0.00000000 </v>
   <v>      -0.41935484       0.19354839       0.00000000 </v>
   <v>      -0.38709677       0.19354839       0.00000000 </v>
   <v>      -0.35483871       0.19354839       0.00000000 </v>
   <v>      -0.32258065       0.19354839       0.00000000 </v>
   <v>      -0.29032258       0.19354839       0.00000000 </v>
   <v>      -0.25806452       0.19354839       0.00000000 </v>
   <v>      -0.22580645       0.19354839       0.00000000 </v>
   <v>      -0.19354839       0.19354839       0.00000000 </v>
   <v>       0.22580645       0.22580645       0.00000000 </v>
   <v>       0.25806452       0.22580645       0.00000000 </v>
   <v>       0.29032258       0.22580645       0.00000000 </v>
   <v>       0.32258065       0.22580645       0.00000000 </v>
   <v>       0.35483871       0.22580645       0.00000000 </v>
   <v>       0.38709677       0.22580645       0.00000000 </v>
   <v>       0.41935484       0.22580645       0.00000000 </v>
   <v>       0.45161290       0.22580645       0.00000000 </v>
   <v>       0.48387097       0.22580645       0.00000000 </v>
   <v>      -0.48387097       0.22580645       0.00000000 </v>
   <v>      -0.45161290       0.22580645       0.00000000 </v>
   <v>      -0.41935484       0.22580645       0.00000000 </v>
   <v>      -0.38709677       0.22580645       0.00000000 </v>
   <v>      -0.35483871       0.22580645       0.00000000 </v>
   <v>      -0.32258065       0.22580645       0.00000000 </v>
   <v>      -0.29032258       0.22580645       0.00000000 </v>
   <v>      -0.25806452       0.22580645       0.00000000 </v>
   <v>      -0.22580645       0.22580645       0.00000000 </v>
   <v>       0.25806452       0.25806452       0.00000000 </v>
   <v>       0.29032258       0.25806452       0.00000000 </v>
   <v>       0.32258065       0.25806452       0.00000000 </v>
   <v>       0.35483871       0.25806452       0.00000000 </v>
   <v>       0.38709677       0.25806452       0.00000000 </v>
   <v>       0.41935484       0.25806452       0.00000000 </v>
   <v>       0.45161290       0.25806452       0.00000000 </v>
   <v>       0.48387097       0.25806452       0.00000000 </v>
   <v>      -0.48387097       0.25806452       0.00000000 </v>
   <v>      -0.45161290       0.25806452       0.00000000 </v>
   <v>      -0.41935484       0.25806452       0.00000000 </v>
   <v>      -0.38709677       0.25806452       0.00000000 </v>
   <v>      -0.35483871       0.25806452       0.00000000 </v>
   <v>      -0.32258065       0.25806452       0.00000000 </v>
   <v>      -0.29032258       0.25806452       0.00000000 </v>
   <v>      -0.25806452       0.25806452       0.00000000 </v>
   <v>       0.29032258       0.29032258       0.00000000 </v>
   <v>       0.32258065       0.29032258       0.00000000 </v>
   <v>       0.35483871       0.29032258       0.00000000 </v>
   <v>       0.38709677       0.29032258       0.00000000 </v>
   <v>       0.41935484       0.29032258       0.00000000 </v>
   <v>       0.45161290       0.29032258       0.00000000 </v>
   <v>       0.48387097       0.29032258       0.00000000 </v>
   <v>      -0.48387097       0.29032258       0.00000000 </v>
   <v>      -0.45161290       0.29032258       0.00000000 </v>
   <v>      -0.41935484       0.29032258       0.00000000 </v>
   <v>      -0.38709677       0.29032258       0.00000000 </v>
   <v>      -0.35483871       0.29032258       0.00000000 </v>
   <v>      -0.32258065       0.29032258       0.00000000 </v>
   <v>      -0.29032258       0.29032258       0.00000000 </v>
   <v>       0.32258065       0.32258065       0.00000000 </v>
   <v>       0.35483871       0.32258065       0.00000000 </v>
   <v>       0.38709677       0.32258065       0.00000000 </v>
   <v>       0.41935484       0.32258065       0.00000000 </v>
   <v>       0.45161290       0.32258065       0.00000000 </v>
   <v>       0.48387097       0.32258065       0.00000000 </v>
   <v>      -0.48387097       0.32258065       0.00000000 </v>
   <v>      -0.45161290       0.32258065       0.00000000 </v>
   <v>      -0.41935484       0.32258065       0.00000000 </v>
   <v>      -0.38709677       0.32258065       0.00000000 </v>
   <v>      -0.35483871       0.32258065       0.00000000 </v>
   <v>      -0.32258065       0.32258065       0.00000000 </v>
   <v>       0.35483871       0.35483871       0.00000000 </v>
   <v>       0.38709677       0.35483871       0.00000000 </v>
   <v>       0.41935484       0.35483871       0.00000000 </v>
   <v>       0.45161290       0.35483871       0.00000000 </v>
   <v>       0.48387097       0.35483871       0.00000000 </v>
   <v>      -0.48387097       0.35483871       0.00000000 </v>
   <v>      -0.45161290       0.35483871       0.00000000 </v>
   <v>      -0.41935484       0.35483871       0.00000000 </v>
   <v>      -0.38709677       0.35483871       0.00000000 </v>
   <v>      -0.35483871       0.35483871       0.00000000 </v>
   <v>       0.38709677       0.38709677       0.00000000 </v>
   <v>       0.41935484       0.38709677       0.00000000 </v>
   <v>       0.45161290       0.38709677       0.00000000 </v>
   <v>       0.48387097       0.38709677       0.00000000 </v>
   <v>      -0.48387097       0.38709677       0.00000000 </v>
   <v>      -0.45161290       0.38709677       0.00000000 </v>
   <v>      -0.41935484       0.38709677       0.00000000 </v>
   <v>      -0.38709677       0.38709677       0.00000000 </v>
   <v>       0.41935484       0.41935484       0.00000000 </v>
   <v>       0.45161290       0.41935484       0.00000000 </v>
   <v>       0.48387097       0.41935484       0.00000000 </v>
   <v>      -0.48387097       0.41935484       0.00000000 </v>
   <v>      -0.45161290       0.41935484       0.00000000 </v>
   <v>      -0.41935484       0.41935484       0.00000000 </v>
   <v>       0.45161290       0.45161290       0.00000000 </v>
   <v>       0.48387097       0.45161290       0.00000000 </v>
   <v>      -0.48387097       0.45161290       0.00000000 </v>
   <v>      -0.45161290       0.45161290       0.00000000 </v>
   <v>       0.48387097       0.48387097       0.00000000 </v>
   <v>      -0.48387097       0.48387097       0.00000000 </v>
   <v>       0.09677419       0.06451613       0.03225806 </v>
   <v>       0.12903226       0.06451613       0.03225806 </v>
   <v>       0.16129032       0.06451613       0.03225806 </v>
   <v>       0.19354839       0.06451613       0.03225806 </v>
   <v>       0.22580645       0.06451613       0.03225806 </v>
   <v>       0.25806452       0.06451613       0.03225806 </v>
   <v>       0.29032258       0.06451613       0.03225806 </v>
   <v>       0.32258065       0.06451613       0.03225806 </v>
   <v>       0.35483871       0.06451613       0.03225806 </v>
   <v>       0.38709677       0.06451613       0.03225806 </v>
   <v>       0.41935484       0.06451613       0.03225806 </v>
   <v>       0.45161290       0.06451613       0.03225806 </v>
   <v>       0.48387097       0.06451613       0.03225806 </v>
   <v>      -0.48387097       0.06451613       0.03225806 </v>
   <v>       0.12903226       0.09677419       0.03225806 </v>
   <v>       0.16129032       0.09677419       0.03225806 </v>
   <v>       0.19354839       0.09677419       0.03225806 </v>
   <v>       0.22580645       0.09677419       0.03225806 </v>
   <v>       0.25806452       0.09677419       0.03225806 </v>
   <v>       0.29032258       0.09677419       0.03225806 </v>
   <v>       0.32258065       0.09677419       0.03225806 </v>
   <v>       0.35483871       0.09677419       0.03225806 </v>
   <v>       0.38709677       0.09677419       0.03225806 </v>
   <v>       0.41935484       0.09677419       0.03225806 </v>
   <v>       0.45161290       0.09677419       0.03225806 </v>
   <v>       0.48387097       0.09677419       0.03225806 </v>
   <v>      -0.48387097       0.09677419       0.03225806 </v>
   <v>      -0.45161290       0.09677419       0.03225806 </v>
   <v>      -0.41935484       0.09677419       0.03225806 </v>
   <v>      -0.38709677       0.09677419       0.03225806 </v>
   <v>      -0.35483871       0.09677419       0.03225806 </v>
   <v>      -0.32258065       0.09677419       0.03225806 </v>
   <v>      -0.29032258       0.09677419       0.03225806 </v>
   <v>      -0.25806452       0.09677419       0.03225806 </v>
   <v>      -0.22580645       0.09677419       0.03225806 </v>
   <v>      -0.19354839       0.09677419       0.03225806 </v>
   <v>      -0.16129032       0.09677419       0.03225806 </v>
   <v>      -0.12903226       0.09677419       0.03225806 </v>
   <v>      -0.09677419       0.09677419       0.03225806 </v>
   <v>      -0.06451613       0.09677419       0.03225806 </v>
   <v>       0.16129032       0.12903226       0.03225806 </v>
   <v>       0.19354839       0.12903226       0.03225806 </v>
   <v>       0.22580645       0.12903226       0.03225806 </v>
   <v>       0.25806452       0.12903226       0.03225806 </v>
   <v>       0.29032258       0.12903226       0.03225806 </v>
   <v>       0.32258065       0.12903226       0.03225806 </v>
   <v>       0.35483871       0.12903226       0.03225806 </v>
   <v>       0.38709677       0.12903226       0.03225806 </v>
   <v>       0.41935484       0.12903226       0.03225806 </v>
   <v>       0.45161290       0.12903226       0.03225806 </v>
   <v>       0.48387097       0.12903226       0.03225806 </v>
   <v>      -0.48387097       0.12903226       0.03225806 </v>
   <v>      -0.45161290       0.12903226       0.03225806 </v>
   <v>      -0.41935484       0.12903226       0.03225806 </v>
   <v>      -0.38709677       0.12903226       0.03225806 </v>
   <v>      -0.35483871       0.12903226       0.03225806 </v>
   <v>      -0.32258065       0.12903226       0.03225806 </v>
   <v>      -0.29032258       0.12903226       0.03225806 </v>
   <v>      -0.25806452       0.12903226       0.03225806 </v>
   <v>      -0.22580645       0.12903226       0.03225806 </v>
   <v>      -0.19354839       0.12903226       0.03225806 </v>
   <v>      -0.16129032       0.12903226       0.03225806 </v>
   <v>      -0.12903226       0.12903226       0.03225806 </v>
   <v>      -0.09677419       0.12903226       0.03225806 </v>
   <v>       0.19354839       0.16129032       0.03225806 </v>
   <v>       0.22580645       0.16129032       0.03225806 </v>
   <v>       0.25806452       0.16129032       0.03225806 </v>
   <v>       0.29032258       0.16129032       0.03225806 </v>
   <v>       0.32258065       0.16129032       0.03225806 </v>
   <v>       0.35483871       0.16129032       0.03225806 </v>
   <v>       0.38709677       0.16129032       0.03225806 </v>
   <v>       0.41935484       0.16129032       0.03225806 </v>
   <v>       0.45161290       0.16129032       0.03225806 </v>
   <v>       0.48387097       0.16129032       0.03225806 </v>
   <v>      -0.48387097       0.16129032       0.03225806 </v>
   <v>      -0.45161290       0.16129032       0.03225806 </v>
   <v>      -0.41935484       0.16129032       0.03225806 </v>
   <v>      -0.38709677       0.16129032       0.03225806 </v>
   <v>      -0.35483871       0.16129032       0.03225806 </v>
   <v>      -0.32258065       0.16129032       0.03225806 </v>
   <v>      -0.29032258       0.16129032       0.03225806 </v>
   <v>      -0.25806452       0.16129032       0.03225806 </v>
   <v>      -0.22580645       0.16129032       0.03225806 </v>
   <v>      -0.19354839       0.16129032       0.03225806 </v>
   <v>      -0.16129032       0.16129032       0.03225806 </v>
   <v>      -0.12903226       0.16129032       0.03225806 </v>
   <v>       0.22580645       0.19354839       0.03225806 </v>
   <v>       0.25806452       0.19354839       0.03225806 </v>
   <v>       0.29032258       0.19354839       0.03225806 </v>
   <v>       0.32258065       0.19354839       0.03225806 </v>
   <v>       0.35483871       0.19354839       0.03225806 </v>
   <v>       0.38709677       0.19354839       0.03225806 </v>
   <v>       0.41935484       0.19354839       0.03225806 </v>
   <v>       0.45161290       0.19354839       0.03225806 </v>
   <v>       0.48387097       0.19354839       0.03225806 </v>
   <v>      -0.48387097       0.19354839       0.03225806 </v>
   <v>      -0.45161290       0.19354839       0.03225806 </v>
   <v>      -0.41935484       0.19354839       0.03225806 </v>
   <v>      -0.38709677       0.19354839       0.03225806 </v>
   <v>      -0.35483871       0.19354839       0.03225806 </v>
   <v>      -0.32258065       0.19354839       0.03225806 </v>
   <v>      -0.29032258       0.19354839       0.03225806 </v>
   <v>      -0.25806452       0.19354839       0.03225806 </v>
   <v>      -0.22580645       0.19354839       0.03225806 </v>
   <v>      -0.19354839       0.19354839       0.03225806 </v>
   <v>      -0.16129032       0.19354839       0.03225806 </v>
   <v>       0.25806452       0.22580645       0.03225806 </v>
   <v>       0.29032258       0.22580645       0.03225806 </v>
   <v>       0.32258065       0.22580645       0.03225806 </v>
   <v>       0.35483871       0.22580645       0.03225806 </v>
   <v>       0.38709677       0.22580645       0.03225806 </v>
   <v>       0.41935484       0.22580645       0.03225806 </v>
   <v>       0.45161290       0.22580645       0.03225806 </v>
   <v>       0.48387097       0.22580645       0.03225806 </v>
   <v>      -0.48387097       0.22580645       0.03225806 </v>
   <v>      -0.45161290       0.22580645       0.03225806 </v>
   <v>      -0.41935484       0.22580645       0.03225806 </v>
   <v>      -0.38709677       0.22580645       0.03225806 </v>
   <v>      -0.35483871       0.22580645       0.03225806 </v>
   <v>      -0.32258065       0.22580645       0.03225806 </v>
   <v>      -0.29032258       0.22580645       0.03225806 </v>
   <v>      -0.25806452       0.22580645       0.03225806 </v>
   <v>      -0.22580645       0.22580645       0.03225806 </v>
   <v>      -0.19354839       0.22580645       0.03225806 </v>
   <v>       0.29032258       0.25806452       0.03225806 </v>
   <v>       0.32258065       0.25806452       0.03225806 </v>
   <v>       0.35483871       0.25806452       0.03225806 </v>
   <v>       0.38709677       0.25806452       0.03225806 </v>
   <v>       0.41935484       0.25806452       0.03225806 </v>
   <v>       0.45161290       0.25806452       0.03225806 </v>
   <v>       0.48387097       0.25806452       0.03225806 </v>
   <v>      -0.48387097       0.25806452       0.03225806 </v>
   <v>      -0.45161290       0.25806452       0.03225806 </v>
   <v>      -0.41935484       0.25806452       0.03225806 </v>
   <v>      -0.38709677       0.25806452       0.03225806 </v>
   <v>      -0.35483871       0.25806452       0.03225806 </v>
   <v>      -0.32258065       0.25806452       0.03225806 </v>
   <v>      -0.29032258       0.25806452       0.03225806 </v>
   <v>      -0.25806452       0.25806452       0.03225806 </v>
   <v>      -0.22580645       0.25806452       0.03225806 </v>
   <v>       0.32258065       0.29032258       0.03225806 </v>
   <v>       0.35483871       0.29032258       0.03225806 </v>
   <v>       0.38709677       0.29032258       0.03225806 </v>
   <v>       0.41935484       0.29032258       0.03225806 </v>
   <v>       0.45161290       0.29032258       0.03225806 </v>
   <v>       0.48387097       0.29032258       0.03225806 </v>
   <v>      -0.48387097       0.29032258       0.03225806 </v>
   <v>      -0.45161290       0.29032258       0.03225806 </v>
   <v>      -0.41935484       0.29032258       0.03225806 </v>
   <v>      -0.38709677       0.29032258       0.03225806 </v>
   <v>      -0.35483871       0.29032258       0.03225806 </v>
   <v>      -0.32258065       0.29032258       0.03225806 </v>
   <v>      -0.29032258       0.29032258       0.03225806 </v>
   <v>      -0.25806452       0.29032258       0.03225806 </v>
   <v>       0.35483871       0.32258065       0.03225806 </v>
   <v>       0.38709677       0.32258065       0.03225806 </v>
   <v>       0.41935484       0.32258065       0.03225806 </v>
   <v>       0.45161290       0.32258065       0.03225806 </v>
   <v>       0.48387097       0.32258065       0.03225806 </v>
   <v>      -0.48387097       0.32258065       0.03225806 </v>
   <v>      -0.45161290       0.32258065       0.03225806 </v>
   <v>      -0.41935484       0.32258065       0.03225806 </v>
   <v>      -0.38709677       0.32258065       0.03225806 </v>
   <v>      -0.35483871       0.32258065       0.03225806 </v>
   <v>      -0.32258065       0.32258065       0.03225806 </v>
   <v>      -0.29032258       0.32258065       0.03225806 </v>
   <v>       0.38709677       0.35483871       0.03225806 </v>
   <v>       0.41935484       0.35483871       0.03225806 </v>
   <v>       0.45161290       0.35483871       0.03225806 </v>
   <v>       0.48387097       0.35483871       0.03225806 </v>
   <v>      -0.48387097       0.35483871       0.03225806 </v>
   <v>      -0.45161290       0.35483871       0.03225806 </v>
   <v>      -0.41935484       0.35483871       0.03225806 </v>
   <v>      -0.38709677       0.35483871       0.03225806 </v>
   <v>      -0.35483871       0.35483871       0.03225806 </v>
   <v>      -0.32258065       0.35483871       0.03225806 </v>
   <v>       0.41935484       0.38709677       0.03225806 </v>
   <v>       0.45161290       0.38709677       0.03225806 </v>
   <v>       0.48387097       0.38709677       0.03225806 </v>
   <v>      -0.48387097       0.38709677       0.03225806 </v>
   <v>      -0.45161290       0.38709677       0.03225806 </v>
   <v>      -0.41935484       0.38709677       0.03225806 </v>
   <v>      -0.38709677       0.38709677       0.03225806 </v>
   <v>      -0.35483871       0.38709677       0.03225806 </v>
   <v>       0.45161290       0.41935484       0.03225806 </v>
   <v>       0.48387097       0.41935484       0.03225806 </v>
   <v>      -0.48387097       0.41935484       0.03225806 </v>
   <v>      -0.45161290       0.41935484       0.03225806 </v>
   <v>      -0.41935484       0.41935484       0.03225806 </v>
   <v>      -0.38709677       0.41935484       0.03225806 </v>
   <v>       0.48387097       0.45161290       0.03225806 </v>
   <v>      -0.48387097       0.45161290       0.03225806 </v>
   <v>      -0.45161290       0.45161290       0.03225806 </v>
   <v>      -0.41935484       0.45161290       0.03225806 </v>
   <v>      -0.48387097       0.48387097       0.03225806 </v>
   <v>      -0.45161290       0.48387097       0.03225806 </v>
   <v>       0.19354839       0.12903226       0.06451613 </v>
   <v>       0.22580645       0.12903226       0.06451613 </v>
   <v>       0.25806452       0.12903226       0.06451613 </v>
   <v>       0.29032258       0.12903226       0.06451613 </v>
   <v>       0.32258065       0.12903226       0.06451613 </v>
   <v>       0.35483871       0.12903226       0.06451613 </v>
   <v>       0.38709677       0.12903226       0.06451613 </v>
   <v>       0.41935484       0.12903226       0.06451613 </v>
   <v>       0.45161290       0.12903226       0.06451613 </v>
   <v>       0.48387097       0.12903226       0.06451613 </v>
   <v>      -0.48387097       0.12903226       0.06451613 </v>
   <v>      -0.45161290       0.12903226       0.06451613 </v>
   <v>       0.22580645       0.16129032       0.06451613 </v>
   <v>       0.25806452       0.16129032       0.06451613 </v>
   <v>       0.29032258       0.16129032       0.06451613 </v>
   <v>       0.32258065       0.16129032       0.06451613 </v>
   <v>       0.35483871       0.16129032       0.06451613 </v>
   <v>       0.38709677       0.16129032       0.06451613 </v>
   <v>       0.41935484       0.16129032       0.06451613 </v>
   <v>       0.45161290       0.16129032       0.06451613 </v>
   <v>       0.48387097       0.16129032       0.06451613 </v>
   <v>      -0.48387097       0.16129032       0.06451613 </v>
   <v>      -0.45161290       0.16129032       0.06451613 </v>
   <v>      -0.41935484       0.16129032       0.06451613 </v>
   <v>      -0.38709677       0.16129032       0.06451613 </v>
   <v>      -0.35483871       0.16129032       0.06451613 </v>
   <v>      -0.32258065       0.16129032       0.06451613 </v>
   <v>      -0.29032258       0.16129032       0.06451613 </v>
   <v>      -0.25806452       0.16129032       0.06451613 </v>
   <v>      -0.22580645       0.16129032       0.06451613 </v>
   <v>      -0.19354839       0.16129032       0.06451613 </v>
   <v>      -0.16129032       0.16129032       0.06451613 </v>
   <v>      -0.12903226       0.16129032       0.06451613 </v>
   <v>      -0.09677419       0.16129032       0.06451613 </v>
   <v>       0.25806452       0.19354839       0.06451613 </v>
   <v>       0.29032258       0.19354839       0.06451613 </v>
   <v>       0.32258065       0.19354839       0.06451613 </v>
   <v>       0.35483871       0.19354839       0.06451613 </v>
   <v>       0.38709677       0.19354839       0.06451613 </v>
   <v>       0.41935484       0.19354839       0.06451613 </v>
   <v>       0.45161290       0.19354839       0.06451613 </v>
   <v>       0.48387097       0.19354839       0.06451613 </v>
   <v>      -0.48387097       0.19354839       0.06451613 </v>
   <v>      -0.45161290       0.19354839       0.06451613 </v>
   <v>      -0.41935484       0.19354839       0.06451613 </v>
   <v>      -0.38709677       0.19354839       0.06451613 </v>
   <v>      -0.35483871       0.19354839       0.06451613 </v>
   <v>      -0.32258065       0.19354839       0.06451613 </v>
   <v>      -0.29032258       0.19354839       0.06451613 </v>
   <v>      -0.25806452       0.19354839       0.06451613 </v>
   <v>      -0.22580645       0.19354839       0.06451613 </v>
   <v>      -0.19354839       0.19354839       0.06451613 </v>
   <v>      -0.16129032       0.19354839       0.06451613 </v>
   <v>      -0.12903226       0.19354839       0.06451613 </v>
   <v>       0.29032258       0.22580645       0.06451613 </v>
   <v>       0.32258065       0.22580645       0.06451613 </v>
   <v>       0.35483871       0.22580645       0.06451613 </v>
   <v>       0.38709677       0.22580645       0.06451613 </v>
   <v>       0.41935484       0.22580645       0.06451613 </v>
   <v>       0.45161290       0.22580645       0.06451613 </v>
   <v>       0.48387097       0.22580645       0.06451613 </v>
   <v>      -0.48387097       0.22580645       0.06451613 </v>
   <v>      -0.45161290       0.22580645       0.06451613 </v>
   <v>      -0.41935484       0.22580645       0.06451613 </v>
   <v>      -0.38709677       0.22580645       0.06451613 </v>
   <v>      -0.35483871       0.22580645       0.06451613 </v>
   <v>      -0.32258065       0.22580645       0.06451613 </v>
   <v>      -0.29032258       0.22580645       0.06451613 </v>
   <v>      -0.25806452       0.22580645       0.06451613 </v>
   <v>      -0.22580645       0.22580645       0.06451613 </v>
   <v>      -0.19354839       0.22580645       0.06451613 </v>
   <v>      -0.16129032       0.22580645       0.06451613 </v>
   <v>       0.32258065       0.25806452       0.06451613 </v>
   <v>       0.35483871       0.25806452       0.06451613 </v>
   <v>       0.38709677       0.25806452       0.06451613 </v>
   <v>       0.41935484       0.25806452       0.06451613 </v>
   <v>       0.45161290       0.25806452       0.06451613 </v>
   <v>       0.48387097       0.25806452       0.06451613 </v>
   <v>      -0.48387097       0.25806452       0.06451613 </v>
   <v>      -0.45161290       0.25806452       0.06451613 </v>
   <v>      -0.41935484       0.25806452       0.06451613 </v>
   <v>      -0.38709677       0.25806452       0.06451613 </v>
   <v>      -0.35483871       0.25806452       0.06451613 </v>
   <v>      -0.32258065       0.25806452       0.06451613 </v>
   <v>      -0.29032258       0.25806452       0.06451613 </v>
   <v>      -0.25806452       0.25806452       0.06451613 </v>
   <v>      -0.22580645       0.25806452       0.06451613 </v>
   <v>      -0.19354839       0.25806452       0.06451613 </v>
   <v>       0.35483871       0.29032258       0.06451613 </v>
   <v>       0.38709677       0.29032258       0.06451613 </v>
   <v>       0.41935484       0.29032258       0.06451613 </v>
   <v>       0.45161290       0.29032258       0.06451613 </v>
   <v>       0.48387097       0.29032258       0.06451613 </v>
   <v>      -0.48387097       0.29032258       0.06451613 </v>
   <v>      -0.45161290       0.29032258       0.06451613 </v>
   <v>      -0.41935484       0.29032258       0.06451613 </v>
   <v>      -0.38709677       0.29032258       0.06451613 </v>
   <v>      -0.35483871       0.29032258       0.06451613 </v>
   <v>      -0.32258065       0.29032258       0.06451613 </v>
   <v>      -0.29032258       0.29032258       0.06451613 </v>
   <v>      -0.25806452       0.29032258       0.06451613 </v>
   <v>      -0.22580645       0.29032258       0.06451613 </v>
   <v>       0.38709677       0.32258065       0.06451613 </v>
   <v>       0.41935484       0.32258065       0.06451613 </v>
   <v>       0.45161290       0.32258065       0.06451613 </v>
   <v>       0.48387097       0.32258065       0.06451613 </v>
   <v>      -0.48387097       0.32258065       0.06451613 </v>
   <v>      -0.45161290       0.32258065       0.06451613 </v>
   <v>      -0.41935484       0.32258065       0.06451613 </v>
   <v>      -0.38709677       0.32258065       0.06451613 </v>
   <v>      -0.35483871       0.32258065       0.06451613 </v>
   <v>      -0.32258065       0.32258065       0.06451613 </v>
   <v>      -0.29032258       0.32258065       0.06451613 </v>
   <v>      -0.25806452       0.32258065       0.06451613 </v>
   <v>       0.41935484       0.35483871       0.06451613 </v>
   <v>       0.45161290       0.35483871       0.06451613 </v>
   <v>       0.48387097       0.35483871       0.06451613 </v>
   <v>      -0.48387097       0.35483871       0.06451613 </v>
   <v>      -0.45161290       0.35483871       0.06451613 </v>
   <v>      -0.41935484       0.35483871       0.06451613 </v>
   <v>      -0.38709677       0.35483871       0.06451613 </v>
   <v>      -0.35483871       0.35483871       0.06451613 </v>
   <v>      -0.32258065       0.35483871       0.06451613 </v>
   <v>      -0.29032258       0.35483871       0.06451613 </v>
   <v>       0.45161290       0.38709677       0.06451613 </v>
   <v>       0.48387097       0.38709677       0.06451613 </v>
   <v>      -0.48387097       0.38709677       0.06451613 </v>
   <v>      -0.45161290       0.38709677       0.06451613 </v>
   <v>      -0.41935484       0.38709677       0.06451613 </v>
   <v>      -0.38709677       0.38709677       0.06451613 </v>
   <v>      -0.35483871       0.38709677       0.06451613 </v>
   <v>      -0.32258065       0.38709677       0.06451613 </v>
   <v>       0.48387097       0.41935484       0.06451613 </v>
   <v>      -0.48387097       0.41935484       0.06451613 </v>
   <v>      -0.45161290       0.41935484       0.06451613 </v>
   <v>      -0.41935484       0.41935484       0.06451613 </v>
   <v>      -0.38709677       0.41935484       0.06451613 </v>
   <v>      -0.35483871       0.41935484       0.06451613 </v>
   <v>      -0.48387097       0.45161290       0.06451613 </v>
   <v>      -0.45161290       0.45161290       0.06451613 </v>
   <v>      -0.41935484       0.45161290       0.06451613 </v>
   <v>      -0.38709677       0.45161290       0.06451613 </v>
   <v>      -0.45161290       0.48387097       0.06451613 </v>
   <v>      -0.41935484       0.48387097       0.06451613 </v>
   <v>       0.29032258       0.19354839       0.09677419 </v>
   <v>       0.32258065       0.19354839       0.09677419 </v>
   <v>       0.35483871       0.19354839       0.09677419 </v>
   <v>       0.38709677       0.19354839       0.09677419 </v>
   <v>       0.41935484       0.19354839       0.09677419 </v>
   <v>       0.45161290       0.19354839       0.09677419 </v>
   <v>       0.48387097       0.19354839       0.09677419 </v>
   <v>      -0.48387097       0.19354839       0.09677419 </v>
   <v>      -0.45161290       0.19354839       0.09677419 </v>
   <v>      -0.41935484       0.19354839       0.09677419 </v>
   <v>       0.32258065       0.22580645       0.09677419 </v>
   <v>       0.35483871       0.22580645       0.09677419 </v>
   <v>       0.38709677       0.22580645       0.09677419 </v>
   <v>       0.41935484       0.22580645       0.09677419 </v>
   <v>       0.45161290       0.22580645       0.09677419 </v>
   <v>       0.48387097       0.22580645       0.09677419 </v>
   <v>      -0.48387097       0.22580645       0.09677419 </v>
   <v>      -0.45161290       0.22580645       0.09677419 </v>
   <v>      -0.41935484       0.22580645       0.09677419 </v>
   <v>      -0.38709677       0.22580645       0.09677419 </v>
   <v>      -0.35483871       0.22580645       0.09677419 </v>
   <v>      -0.32258065       0.22580645       0.09677419 </v>
   <v>      -0.29032258       0.22580645       0.09677419 </v>
   <v>      -0.25806452       0.22580645       0.09677419 </v>
   <v>      -0.22580645       0.22580645       0.09677419 </v>
   <v>      -0.19354839       0.22580645       0.09677419 </v>
   <v>      -0.16129032       0.22580645       0.09677419 </v>
   <v>      -0.12903226       0.22580645       0.09677419 </v>
   <v>       0.35483871       0.25806452       0.09677419 </v>
   <v>       0.38709677       0.25806452       0.09677419 </v>
   <v>       0.41935484       0.25806452       0.09677419 </v>
   <v>       0.45161290       0.25806452       0.09677419 </v>
   <v>       0.48387097       0.25806452       0.09677419 </v>
   <v>      -0.48387097       0.25806452       0.09677419 </v>
   <v>      -0.45161290       0.25806452       0.09677419 </v>
   <v>      -0.41935484       0.25806452       0.09677419 </v>
   <v>      -0.38709677       0.25806452       0.09677419 </v>
   <v>      -0.35483871       0.25806452       0.09677419 </v>
   <v>      -0.32258065       0.25806452       0.09677419 </v>
   <v>      -0.29032258       0.25806452       0.09677419 </v>
   <v>      -0.25806452       0.25806452       0.09677419 </v>
   <v>      -0.22580645       0.25806452       0.09677419 </v>
   <v>      -0.19354839       0.25806452       0.09677419 </v>
   <v>      -0.16129032       0.25806452       0.09677419 </v>
   <v>       0.38709677       0.29032258       0.09677419 </v>
   <v>       0.41935484       0.29032258       0.09677419 </v>
   <v>       0.45161290       0.29032258       0.09677419 </v>
   <v>       0.48387097       0.29032258       0.09677419 </v>
   <v>      -0.48387097       0.29032258       0.09677419 </v>
   <v>      -0.45161290       0.29032258       0.09677419 </v>
   <v>      -0.41935484       0.29032258       0.09677419 </v>
   <v>      -0.38709677       0.29032258       0.09677419 </v>
   <v>      -0.35483871       0.29032258       0.09677419 </v>
   <v>      -0.32258065       0.29032258       0.09677419 </v>
   <v>      -0.29032258       0.29032258       0.09677419 </v>
   <v>      -0.25806452       0.29032258       0.09677419 </v>
   <v>      -0.22580645       0.29032258       0.09677419 </v>
   <v>      -0.19354839       0.29032258       0.09677419 </v>
   <v>       0.41935484       0.32258065       0.09677419 </v>
   <v>       0.45161290       0.32258065       0.09677419 </v>
   <v>       0.48387097       0.32258065       0.09677419 </v>
   <v>      -0.48387097       0.32258065       0.09677419 </v>
   <v>      -0.45161290       0.32258065       0.09677419 </v>
   <v>      -0.41935484       0.32258065       0.09677419 </v>
   <v>      -0.38709677       0.32258065       0.09677419 </v>
   <v>      -0.35483871       0.32258065       0.09677419 </v>
   <v>      -0.32258065       0.32258065       0.09677419 </v>
   <v>      -0.29032258       0.32258065       0.09677419 </v>
   <v>      -0.25806452       0.32258065       0.09677419 </v>
   <v>      -0.22580645       0.32258065       0.09677419 </v>
   <v>       0.45161290       0.35483871       0.09677419 </v>
   <v>       0.48387097       0.35483871       0.09677419 </v>
   <v>      -0.48387097       0.35483871       0.09677419 </v>
   <v>      -0.45161290       0.35483871       0.09677419 </v>
   <v>      -0.41935484       0.35483871       0.09677419 </v>
   <v>      -0.38709677       0.35483871       0.09677419 </v>
   <v>      -0.35483871       0.35483871       0.09677419 </v>
   <v>      -0.32258065       0.35483871       0.09677419 </v>
   <v>      -0.29032258       0.35483871       0.09677419 </v>
   <v>      -0.25806452       0.35483871       0.09677419 </v>
   <v>       0.48387097       0.38709677       0.09677419 </v>
   <v>      -0.48387097       0.38709677       0.09677419 </v>
   <v>      -0.45161290       0.38709677       0.09677419 </v>
   <v>      -0.41935484       0.38709677       0.09677419 </v>
   <v>      -0.38709677       0.38709677       0.09677419 </v>
   <v>      -0.35483871       0.38709677       0.09677419 </v>
   <v>      -0.32258065       0.38709677       0.09677419 </v>
   <v>      -0.29032258       0.38709677       0.09677419 </v>
   <v>      -0.48387097       0.41935484       0.09677419 </v>
   <v>      -0.45161290       0.41935484       0.09677419 </v>
   <v>      -0.41935484       0.41935484       0.09677419 </v>
   <v>      -0.38709677       0.41935484       0.09677419 </v>
   <v>      -0.35483871       0.41935484       0.09677419 </v>
   <v>      -0.32258065       0.41935484       0.09677419 </v>
   <v>      -0.45161290       0.45161290       0.09677419 </v>
   <v>      -0.41935484       0.45161290       0.09677419 </v>
   <v>      -0.38709677       0.45161290       0.09677419 </v>
   <v>      -0.35483871       0.45161290       0.09677419 </v>
   <v>      -0.41935484       0.48387097       0.09677419 </v>
   <v>      -0.38709677       0.48387097       0.09677419 </v>
   <v>       0.38709677       0.25806452       0.12903226 </v>
   <v>       0.41935484       0.25806452       0.12903226 </v>
   <v>       0.45161290       0.25806452       0.12903226 </v>
   <v>       0.48387097       0.25806452       0.12903226 </v>
   <v>      -0.48387097       0.25806452       0.12903226 </v>
   <v>      -0.45161290       0.25806452       0.12903226 </v>
   <v>      -0.41935484       0.25806452       0.12903226 </v>
   <v>      -0.38709677       0.25806452       0.12903226 </v>
   <v>       0.41935484       0.29032258       0.12903226 </v>
   <v>       0.45161290       0.29032258       0.12903226 </v>
   <v>       0.48387097       0.29032258       0.12903226 </v>
   <v>      -0.48387097       0.29032258       0.12903226 </v>
   <v>      -0.45161290       0.29032258       0.12903226 </v>
   <v>      -0.41935484       0.29032258       0.12903226 </v>
   <v>      -0.38709677       0.29032258       0.12903226 </v>
   <v>      -0.35483871       0.29032258       0.12903226 </v>
   <v>      -0.32258065       0.29032258       0.12903226 </v>
   <v>      -0.29032258       0.29032258       0.12903226 </v>
   <v>      -0.25806452       0.29032258       0.12903226 </v>
   <v>      -0.22580645       0.29032258       0.12903226 </v>
   <v>      -0.19354839       0.29032258       0.12903226 </v>
   <v>      -0.16129032       0.29032258       0.12903226 </v>
   <v>       0.45161290       0.32258065       0.12903226 </v>
   <v>       0.48387097       0.32258065       0.12903226 </v>
   <v>      -0.48387097       0.32258065       0.12903226 </v>
   <v>      -0.45161290       0.32258065       0.12903226 </v>
   <v>      -0.41935484       0.32258065       0.12903226 </v>
   <v>      -0.38709677       0.32258065       0.12903226 </v>
   <v>      -0.35483871       0.32258065       0.12903226 </v>
   <v>      -0.32258065       0.32258065       0.12903226 </v>
   <v>      -0.29032258       0.32258065       0.12903226 </v>
   <v>      -0.25806452       0.32258065       0.12903226 </v>
   <v>      -0.22580645       0.32258065       0.12903226 </v>
   <v>      -0.19354839       0.32258065       0.12903226 </v>
   <v>       0.48387097       0.35483871       0.12903226 </v>
   <v>      -0.48387097       0.35483871       0.12903226 </v>
   <v>      -0.45161290       0.35483871       0.12903226 </v>
   <v>      -0.41935484       0.35483871       0.12903226 </v>
   <v>      -0.38709677       0.35483871       0.12903226 </v>
   <v>      -0.35483871       0.35483871       0.12903226 </v>
   <v>      -0.32258065       0.35483871       0.12903226 </v>
   <v>      -0.29032258       0.35483871       0.12903226 </v>
   <v>      -0.25806452       0.35483871       0.12903226 </v>
   <v>      -0.22580645       0.35483871       0.12903226 </v>
   <v>      -0.48387097       0.38709677       0.12903226 </v>
   <v>      -0.45161290       0.38709677       0.12903226 </v>
   <v>      -0.41935484       0.38709677       0.12903226 </v>
   <v>      -0.38709677       0.38709677       0.12903226 </v>
   <v>      -0.35483871       0.38709677       0.12903226 </v>
   <v>      -0.32258065       0.38709677       0.12903226 </v>
   <v>      -0.29032258       0.38709677       0.12903226 </v>
   <v>      -0.25806452       0.38709677       0.12903226 </v>
   <v>      -0.45161290       0.41935484       0.12903226 </v>
   <v>      -0.41935484       0.41935484       0.12903226 </v>
   <v>      -0.38709677       0.41935484       0.12903226 </v>
   <v>      -0.35483871       0.41935484       0.12903226 </v>
   <v>      -0.32258065       0.41935484       0.12903226 </v>
   <v>      -0.29032258       0.41935484       0.12903226 </v>
   <v>      -0.41935484       0.45161290       0.12903226 </v>
   <v>      -0.38709677       0.45161290       0.12903226 </v>
   <v>      -0.35483871       0.45161290       0.12903226 </v>
   <v>      -0.32258065       0.45161290       0.12903226 </v>
   <v>      -0.38709677       0.48387097       0.12903226 </v>
   <v>      -0.35483871       0.48387097       0.12903226 </v>
   <v>       0.48387097       0.32258065       0.16129032 </v>
   <v>      -0.48387097       0.32258065       0.16129032 </v>
   <v>      -0.45161290       0.32258065       0.16129032 </v>
   <v>      -0.41935484       0.32258065       0.16129032 </v>
   <v>      -0.38709677       0.32258065       0.16129032 </v>
   <v>      -0.35483871       0.32258065       0.16129032 </v>
   <v>      -0.48387097       0.35483871       0.16129032 </v>
   <v>      -0.45161290       0.35483871       0.16129032 </v>
   <v>      -0.41935484       0.35483871       0.16129032 </v>
   <v>      -0.38709677       0.35483871       0.16129032 </v>
   <v>      -0.35483871       0.35483871       0.16129032 </v>
   <v>      -0.32258065       0.35483871       0.16129032 </v>
   <v>      -0.29032258       0.35483871       0.16129032 </v>
   <v>      -0.25806452       0.35483871       0.16129032 </v>
   <v>      -0.22580645       0.35483871       0.16129032 </v>
   <v>      -0.19354839       0.35483871       0.16129032 </v>
   <v>      -0.45161290       0.38709677       0.16129032 </v>
   <v>      -0.41935484       0.38709677       0.16129032 </v>
   <v>      -0.38709677       0.38709677       0.16129032 </v>
   <v>      -0.35483871       0.38709677       0.16129032 </v>
   <v>      -0.32258065       0.38709677       0.16129032 </v>
   <v>      -0.29032258       0.38709677       0.16129032 </v>
   <v>      -0.25806452       0.38709677       0.16129032 </v>
   <v>      -0.22580645       0.38709677       0.16129032 </v>
   <v>      -0.41935484       0.41935484       0.16129032 </v>
   <v>      -0.38709677       0.41935484       0.16129032 </v>
   <v>      -0.35483871       0.41935484       0.16129032 </v>
   <v>      -0.32258065       0.41935484       0.16129032 </v>
   <v>      -0.29032258       0.41935484       0.16129032 </v>
   <v>      -0.25806452       0.41935484       0.16129032 </v>
   <v>      -0.38709677       0.45161290       0.16129032 </v>
   <v>      -0.35483871       0.45161290       0.16129032 </v>
   <v>      -0.32258065       0.45161290       0.16129032 </v>
   <v>      -0.29032258       0.45161290       0.16129032 </v>
   <v>      -0.35483871       0.48387097       0.16129032 </v>
   <v>      -0.32258065       0.48387097       0.16129032 </v>
   <v>      -0.41935484       0.38709677       0.19354839 </v>
   <v>      -0.38709677       0.38709677       0.19354839 </v>
   <v>      -0.35483871       0.38709677       0.19354839 </v>
   <v>      -0.32258065       0.38709677       0.19354839 </v>
   <v>      -0.38709677       0.41935484       0.19354839 </v>
   <v>      -0.35483871       0.41935484       0.19354839 </v>
   <v>      -0.32258065       0.41935484       0.19354839 </v>
   <v>      -0.29032258       0.41935484       0.19354839 </v>
   <v>      -0.25806452       0.41935484       0.19354839 </v>
   <v>      -0.22580645       0.41935484       0.19354839 </v>
   <v>      -0.35483871       0.45161290       0.19354839 </v>
   <v>      -0.32258065       0.45161290       0.19354839 </v>
   <v>      -0.29032258       0.45161290       0.19354839 </v>
   <v>      -0.25806452       0.45161290       0.19354839 </v>
   <v>      -0.32258065       0.48387097       0.19354839 </v>
   <v>      -0.29032258       0.48387097       0.19354839 </v>
   <v>      -0.32258065       0.45161290       0.22580645 </v>
   <v>      -0.29032258       0.45161290       0.22580645 </v>
   <v>      -0.29032258       0.48387097       0.22580645 </v>
   <v>      -0.25806452       0.48387097       0.22580645 </v>
  </varray>
  <varray name="weights" >
   <v>       0.00003357 </v>
   <v>       0.00026854 </v>
   <v>       0.00026854 </v>
   <v>       0.00026854 </v>
   <v>       0.00026854 </v>
   <v>       0.00026854 </v>
   <v>       0.00026854 </v>
   <v>       0.00026854 </v>
   <v>       0.00026854 </v>
   <v>       0.00026854 </v>
   <v>       0.00026854 </v>
   <v>       0.00026854 </v>
   <v>       0.00026854 </v>
   <v>       0.00026854 </v>
   <v>       0.00026854 </v>
   <v>       0.00026854 </v>
   <v>       0.00020140 </v>
   <v>       0.00080561 </v>
   <v>       0.00080561 </v>
   <v>       0.00080561 </v>
   <v>       0.00080561 </v>
   <v>       0.00080561 </v>
   <v>       0.00080561 </v>
   <v>       0.00080561 </v>
   <v>       0.00080561 </v>
   <v>       0.00080561 </v>
   <v>       0.00080561 </v>
   <v>       0.00080561 </v>
   <v>       0.00080561 </v>
   <v>       0.00080561 </v>
   <v>       0.00080561 </v>
   <v>       0.00080561 </v>
   <v>       0.00080561 </v>
   <v>       0.00080561 </v>
   <v>       0.00080561 </v>
   <v>       0.00080561 </v>
   <v>       0.00080561 </v>
   <v>       0.00080561 </v>
   <v>       0.00080561 </v>
   <v>       0.00080561 </v>
   <v>       0.00080561 </v>
   <v>       0.00080561 </v>
   <v>       0.00080561 </v>
   <v>       0.00080561 </v>
   <v>       0.00080561 </v>
   <v>       0.00040281 </v>
   <v>       0.00020140 </v>
   <v>       0.00080561 </v>
   <v>       0.00080561 </v>
   <v>       0.00080561 </v>
   <v>       0.00080561 </v>
   <v>       0.00080561 </v>
   <v>       0.00080561 </v>
   <v>       0.00080561 </v>
   <v>       0.00080561 </v>
   <v>       0.00080561 </v>
   <v>       0.00080561 </v>
   <v>       0.00080561 </v>
   <v>       0.00080561 </v>
   <v>       0.00080561 </v>
   <v>       0.00080561 </v>
   <v>       0.00080561 </v>
   <v>       0.00080561 </v>
   <v>       0.00080561 </v>
   <v>       0.00080561 </v>
   <v>       0.00080561 </v>
   <v>       0.00080561 </v>
   <v>       0.00080561 </v>
   <v>       0.00080561 </v>
   <v>       0.00080561 </v>
   <v>       0.00080561 </v>
   <v>       0.00080561 </v>
   <v>       0.00080561 </v>
   <v>       0.00040281 </v>
   <v>       0.00020140 </v>
   <v>       0.00080561 </v>
   <v>       0.00080561 </v>
   <v>       0.00080561 </v>
   <v>       0.00080561 </v>
   <v>       0.00080561 </v>
   <v>       0.00080561 </v>
   <v>       0.00080561 </v>
   <v>       0.00080561 </v>
   <v>       0.00080561 </v>
   <v>       0.00080561 </v>
   <v>       0.00080561 </v>
   <v>       0.00080561 </v>
   <v>       0.00080561 </v>
   <v>       0.00080561 </v>
   <v>       0.00080561 </v>
   <v>       0.00080561 </v>
   <v>       0.00080561 </v>
   <v>       0.00080561 </v>
   <v>       0.00080561 </v>
   <v>       0.00080561 </v>
   <v>       0.00080561 </v>
   <v>       0.00080561 </v>
   <v>       0.00080561 </v>
   <v>       0.00080561 </v>
   <v>       0.00040281 </v>
   <v>       0.00020140 </v>
   <v>       0.00080561 </v>
   <v>       0.00080561 </v>
   <v>       0.00080561 </v>
   <v>       0.00080561 </v>
   <v>       0.00080561 </v>
   <v>       0.00080561 </v>
   <v>       0.00080561 </v>
   <v>       0.00080561 </v>
   <v>       0.00080561 </v>
   <v>       0.00080561 </v>
   <v>       0.00080561 </v>
   <v>       0.00080561 </v>
   <v>       0.00080561 </v>
   <v>       0.00080561 </v>
   <v>       0.00080561 </v>
   <v>       0.00080561 </v>
   <v>       0.00080561 </v>
   <v>       0.00080561 </v>
   <v>       0.00080561 </v>
   <v>       0.00080561 </v>
   <v>       0.00080561 </v>
   <v>       0.00080561 </v>
   <v>       0.00040281 </v>
   <v>       0.00020140 </v>
   <v>       0.00080561 </v>
   <v>       0.00080561 </v>
   <v>       0.00080561 </v>
   <v>       0.00080561 </v>
   <v>       0.00080561 </v>
   <v>       0.00080561 </v>
   <v>       0.00080561 </v>
   <v>       0.00080561 </v>
   <v>       0.00080561 </v>
   <v>       0.00080561 </v>
   <v>       0.00080561 </v>
   <v>       0.00080561 </v>
   <v>       0.00080561 </v>
   <v>       0.00080561 </v>
   <v>       0.00080561 </v>
   <v>       0.00080561 </v>
   <v>       0.00080561 </v>
   <v>       0.00080561 </v>
   <v>       0.00080561 </v>
   <v>       0.00080561 </v>
   <v>       0.00040281 </v>
   <v>       0.00020140 </v>
   <v>       0.00080561 </v>
   <v>       0.00080561 </v>
   <v>       0.00080561 </v>
   <v>       0.00080561 </v>
   <v>       0.00080561 </v>
   <v>       0.00080561 </v>
   <v>       0.00080561 </v>
   <v>       0.00080561 </v>
   <v>       0.00080561 </v>
   <v>       0.00080561 </v>
   <v>       0.00080561 </v>
   <v>       0.00080561 </v>
   <v>       0.00080561 </v>
   <v>       0.00080561 </v>
   <v>       0.00080561 </v>
   <v>       0.00080561 </v>
   <v>       0.00080561 </v>
   <v>       0.00080561 </v>
   <v>       0.00040281 </v>
   <v>       0.00020140 </v>
   <v>       0.00080561 </v>
   <v>       0.00080561 </v>
   <v>       0.00080561 </v>
   <v>       0.00080561 </v>
   <v>       0.00080561 </v>
   <v>       0.00080561 </v>
   <v>       0.00080561 </v>
   <v>       0.00080561 </v>
   <v>       0.00080561 </v>
   <v>       0.00080561 </v>
   <v>       0.00080561 </v>
   <v>       0.00080561 </v>
   <v>       0.00080561 </v>
   <v>       0.00080561 </v>
   <v>       0.00080561 </v>
   <v>       0.00080561 </v>
   <v>       0.00040281 </v>
   <v>       0.00020140 </v>
   <v>       0.00080561 </v>
   <v>       0.00080561 </v>
   <v>       0.00080561 </v>
   <v>       0.00080561 </v>
   <v>       0.00080561 </v>
   <v>       0.00080561 </v>
   <v>       0.00080561 </v>
   <v>       0.00080561 </v>
   <v>       0.00080561 </v>
   <v>       0.00080561 </v>
   <v>       0.00080561 </v>
   <v>       0.00080561 </v>
   <v>       0.00080561 </v>
   <v>       0.00080561 </v>
   <v>       0.00040281 </v>
   <v>       0.00020140 </v>
   <v>       0.00080561 </v>
   <v>       0.00080561 </v>
   <v>       0.00080561 </v>
   <v>       0.00080561 </v>
   <v>       0.00080561 </v>
   <v>       0.00080561 </v>
   <v>       0.00080561 </v>
   <v>       0.00080561 </v>
   <v>       0.00080561 </v>
   <v>       0.00080561 </v>
   <v>       0.00080561 </v>
   <v>       0.00080561 </v>
   <v>       0.00040281 </v>
   <v>       0.00020140 </v>
   <v>       0.00080561 </v>
   <v>       0.00080561 </v>
   <v>       0.00080561 </v>
   <v>       0.00080561 </v>
   <v>       0.00080561 </v>
   <v>       0.00080561 </v>
   <v>       0.00080561 </v>
   <v>       0.00080561 </v>
   <v>       0.00080561 </v>
   <v>       0.00080561 </v>
   <v>       0.00040281 </v>
   <v>       0.00020140 </v>
   <v>       0.00080561 </v>
   <v>       0.00080561 </v>
   <v>       0.00080561 </v>
   <v>       0.00080561 </v>
   <v>       0.00080561 </v>
   <v>       0.00080561 </v>
   <v>       0.00080561 </v>
   <v>       0.00080561 </v>
   <v>       0.00040281 </v>
   <v>       0.00020140 </v>
   <v>       0.00080561 </v>
   <v>       0.00080561 </v>
   <v>       0.00080561 </v>
   <v>       0.00080561 </v>
   <v>       0.00080561 </v>
   <v>       0.00080561 </v>
   <v>       0.00040281 </v>
   <v>       0.00020140 </v>
   <v>       0.00080561 </v>
   <v>       0.00080561 </v>
   <v>       0.00080561 </v>
   <v>       0.00080561 </v>
   <v>       0.00040281 </v>
   <v>       0.00020140 </v>
   <v>       0.00080561 </v>
   <v>       0.00080561 </v>
   <v>       0.00040281 </v>
   <v>       0.00020140 </v>
   <v>       0.00040281 </v>
   <v>       0.00080561 </v>
   <v>       0.00161122 </v>
   <v>       0.00161122 </v>
   <v>       0.00161122 </v>
   <v>       0.00161122 </v>
   <v>       0.00161122 </v>
   <v>       0.00161122 </v>
   <v>       0.00161122 </v>
   <v>       0.00161122 </v>
   <v>       0.00161122 </v>
   <v>       0.00161122 </v>
   <v>       0.00161122 </v>
   <v>       0.00161122 </v>
   <v>       0.00161122 </v>
   <v>       0.00080561 </v>
   <v>       0.00161122 </v>
   <v>       0.00161122 </v>
   <v>       0.00161122 </v>
   <v>       0.00161122 </v>
   <v>       0.00161122 </v>
   <v>       0.00161122 </v>
   <v>       0.00161122 </v>
   <v>       0.00161122 </v>
   <v>       0.00161122 </v>
   <v>       0.00161122 </v>
   <v>       0.00161122 </v>
   <v>       0.00161122 </v>
   <v>       0.00161122 </v>
   <v>       0.00161122 </v>
   <v>       0.00161122 </v>
   <v>       0.00161122 </v>
   <v>       0.00161122 </v>
   <v>       0.00161122 </v>
   <v>       0.00161122 </v>
   <v>       0.00161122 </v>
   <v>       0.00161122 </v>
   <v>       0.00161122 </v>
   <v>       0.00161122 </v>
   <v>       0.00161122 </v>
   <v>       0.00080561 </v>
   <v>       0.00080561 </v>
   <v>       0.00161122 </v>
   <v>       0.00161122 </v>
   <v>       0.00161122 </v>
   <v>       0.00161122 </v>
   <v>       0.00161122 </v>
   <v>       0.00161122 </v>
   <v>       0.00161122 </v>
   <v>       0.00161122 </v>
   <v>       0.00161122 </v>
   <v>       0.00161122 </v>
   <v>       0.00161122 </v>
   <v>       0.00161122 </v>
   <v>       0.00161122 </v>
   <v>       0.00161122 </v>
   <v>       0.00161122 </v>
   <v>       0.00161122 </v>
   <v>       0.00161122 </v>
   <v>       0.00161122 </v>
   <v>       0.00161122 </v>
   <v>       0.00161122 </v>
   <v>       0.00161122 </v>
   <v>       0.00161122 </v>
   <v>       0.00080561 </v>
   <v>       0.00080561 </v>
   <v>       0.00161122 </v>
   <v>       0.00161122 </v>
   <v>       0.00161122 </v>
   <v>       0.00161122 </v>
   <v>       0.00161122 </v>
   <v>       0.00161122 </v>
   <v>       0.00161122 </v>
   <v>       0.00161122 </v>
   <v>       0.00161122 </v>
   <v>       0.00161122 </v>
   <v>       0.00161122 </v>
   <v>       0.00161122 </v>
   <v>       0.00161122 </v>
   <v>       0.00161122 </v>
   <v>       0.00161122 </v>
   <v>       0.00161122 </v>
   <v>       0.00161122 </v>
   <v>       0.00161122 </v>
   <v>       0.00161122 </v>
   <v>       0.00161122 </v>
   <v>       0.00080561 </v>
   <v>       0.00080561 </v>
   <v>       0.00161122 </v>
   <v>       0.00161122 </v>
   <v>       0.00161122 </v>
   <v>       0.00161122 </v>
   <v>       0.00161122 </v>
   <v>       0.00161122 </v>
   <v>       0.00161122 </v>
   <v>       0.00161122 </v>
   <v>       0.00161122 </v>
   <v>       0.00161122 </v>
   <v>       0.00161122 </v>
   <v>       0.00161122 </v>
   <v>       0.00161122 </v>
   <v>       0.00161122 </v>
   <v>       0.00161122 </v>
   <v>       0.00161122 </v>
   <v>       0.00161122 </v>
   <v>       0.00161122 </v>
   <v>       0.00080561 </v>
   <v>       0.00080561 </v>
   <v>       0.00161122 </v>
   <v>       0.00161122 </v>
   <v>       0.00161122 </v>
   <v>       0.00161122 </v>
   <v>       0.00161122 </v>
   <v>       0.00161122 </v>
   <v>       0.00161122 </v>
   <v>       0.00161122 </v>
   <v>       0.00161122 </v>
   <v>       0.00161122 </v>
   <v>       0.00161122 </v>
   <v>       0.00161122 </v>
   <v>       0.00161122 </v>
   <v>       0.00161122 </v>
   <v>       0.00161122 </v>
   <v>       0.00161122 </v>
   <v>       0.00080561 </v>
   <v>       0.00080561 </v>
   <v>       0.00161122 </v>
   <v>       0.00161122 </v>
   <v>       0.00161122 </v>
   <v>       0.00161122 </v>
   <v>       0.00161122 </v>
   <v>       0.00161122 </v>
   <v>       0.00161122 </v>
   <v>       0.00161122 </v>
   <v>       0.00161122 </v>
   <v>       0.00161122 </v>
   <v>       0.00161122 </v>
   <v>       0.00161122 </v>
   <v>       0.00161122 </v>
   <v>       0.00161122 </v>
   <v>       0.00080561 </v>
   <v>       0.00080561 </v>
   <v>       0.00161122 </v>
   <v>       0.00161122 </v>
   <v>       0.00161122 </v>
   <v>       0.00161122 </v>
   <v>       0.00161122 </v>
   <v>       0.00161122 </v>
   <v>       0.00161122 </v>
   <v>       0.00161122 </v>
   <v>       0.00161122 </v>
   <v>       0.00161122 </v>
   <v>       0.00161122 </v>
   <v>       0.00161122 </v>
   <v>       0.00080561 </v>
   <v>       0.00080561 </v>
   <v>       0.00161122 </v>
   <v>       0.00161122 </v>
   <v>       0.00161122 </v>
   <v>       0.00161122 </v>
   <v>       0.00161122 </v>
   <v>       0.00161122 </v>
   <v>       0.00161122 </v>
   <v>       0.00161122 </v>
   <v>       0.00161122 </v>
   <v>       0.00161122 </v>
   <v>       0.00080561 </v>
   <v>       0.00080561 </v>
   <v>       0.00161122 </v>
   <v>       0.00161122 </v>
   <v>       0.00161122 </v>
   <v>       0.00161122 </v>
   <v>       0.00161122 </v>
   <v>       0.00161122 </v>
   <v>       0.00161122 </v>
   <v>       0.00161122 </v>
   <v>       0.00080561 </v>
   <v>       0.00080561 </v>
   <v>       0.00161122 </v>
   <v>       0.00161122 </v>
   <v>       0.00161122 </v>
   <v>       0.00161122 </v>
   <v>       0.00161122 </v>
   <v>       0.00161122 </v>
   <v>       0.00080561 </v>
   <v>       0.00080561 </v>
   <v>       0.00161122 </v>
   <v>       0.00161122 </v>
   <v>       0.00161122 </v>
   <v>       0.00161122 </v>
   <v>       0.00080561 </v>
   <v>       0.00080561 </v>
   <v>       0.00161122 </v>
   <v>       0.00161122 </v>
   <v>       0.00080561 </v>
   <v>       0.00080561 </v>
   <v>       0.00080561 </v>
   <v>       0.00080561 </v>
   <v>       0.00161122 </v>
   <v>       0.00161122 </v>
   <v>       0.00161122 </v>
   <v>       0.00161122 </v>
   <v>       0.00161122 </v>
   <v>       0.00161122 </v>
   <v>       0.00161122 </v>
   <v>       0.00161122 </v>
   <v>       0.00161122 </v>
   <v>       0.00161122 </v>
   <v>       0.00161122 </v>
   <v>       0.00080561 </v>
   <v>       0.00161122 </v>
   <v>       0.00161122 </v>
   <v>       0.00161122 </v>
   <v>       0.00161122 </v>
   <v>       0.00161122 </v>
   <v>       0.00161122 </v>
   <v>       0.00161122 </v>
   <v>       0.00161122 </v>
   <v>       0.00161122 </v>
   <v>       0.00161122 </v>
   <v>       0.00161122 </v>
   <v>       0.00161122 </v>
   <v>       0.00161122 </v>
   <v>       0.00161122 </v>
   <v>       0.00161122 </v>
   <v>       0.00161122 </v>
   <v>       0.00161122 </v>
   <v>       0.00161122 </v>
   <v>       0.00161122 </v>
   <v>       0.00161122 </v>
   <v>       0.00080561 </v>
   <v>       0.00080561 </v>
   <v>       0.00161122 </v>
   <v>       0.00161122 </v>
   <v>       0.00161122 </v>
   <v>       0.00161122 </v>
   <v>       0.00161122 </v>
   <v>       0.00161122 </v>
   <v>       0.00161122 </v>
   <v>       0.00161122 </v>
   <v>       0.00161122 </v>
   <v>       0.00161122 </v>
   <v>       0.00161122 </v>
   <v>       0.00161122 </v>
   <v>       0.00161122 </v>
   <v>       0.00161122 </v>
   <v>       0.00161122 </v>
   <v>       0.00161122 </v>
   <v>       0.00161122 </v>
   <v>       0.00161122 </v>
   <v>       0.00080561 </v>
   <v>       0.00080561 </v>
   <v>       0.00161122 </v>
   <v>       0.00161122 </v>
   <v>       0.00161122 </v>
   <v>       0.00161122 </v>
   <v>       0.00161122 </v>
   <v>       0.00161122 </v>
   <v>       0.00161122 </v>
   <v>       0.00161122 </v>
   <v>       0.00161122 </v>
   <v>       0.00161122 </v>
   <v>       0.00161122 </v>
   <v>       0.00161122 </v>
   <v>       0.00161122 </v>
   <v>       0.00161122 </v>
   <v>       0.00161122 </v>
   <v>       0.00161122 </v>
   <v>       0.00080561 </v>
   <v>       0.00080561 </v>
   <v>       0.00161122 </v>
   <v>       0.00161122 </v>
   <v>       0.00161122 </v>
   <v>       0.00161122 </v>
   <v>       0.00161122 </v>
   <v>       0.00161122 </v>
   <v>       0.00161122 </v>
   <v>       0.00161122 </v>
   <v>       0.00161122 </v>
   <v>       0.00161122 </v>
   <v>       0.00161122 </v>
   <v>       0.00161122 </v>
   <v>       0.00161122 </v>
   <v>       0.00161122 </v>
   <v>       0.00080561 </v>
   <v>       0.00080561 </v>
   <v>       0.00161122 </v>
   <v>       0.00161122 </v>
   <v>       0.00161122 </v>
   <v>       0.00161122 </v>
   <v>       0.00161122 </v>
   <v>       0.00161122 </v>
   <v>       0.00161122 </v>
   <v>       0.00161122 </v>
   <v>       0.00161122 </v>
   <v>       0.00161122 </v>
   <v>       0.00161122 </v>
   <v>       0.00161122 </v>
   <v>       0.00080561 </v>
   <v>       0.00080561 </v>
   <v>       0.00161122 </v>
   <v>       0.00161122 </v>
   <v>       0.00161122 </v>
   <v>       0.00161122 </v>
   <v>       0.00161122 </v>
   <v>       0.00161122 </v>
   <v>       0.00161122 </v>
   <v>       0.00161122 </v>
   <v>       0.00161122 </v>
   <v>       0.00161122 </v>
   <v>       0.00080561 </v>
   <v>       0.00080561 </v>
   <v>       0.00161122 </v>
   <v>       0.00161122 </v>
   <v>       0.00161122 </v>
   <v>       0.00161122 </v>
   <v>       0.00161122 </v>
   <v>       0.00161122 </v>
   <v>       0.00161122 </v>
   <v>       0.00161122 </v>
   <v>       0.00080561 </v>
   <v>       0.00080561 </v>
   <v>       0.00161122 </v>
   <v>       0.00161122 </v>
   <v>       0.00161122 </v>
   <v>       0.00161122 </v>
   <v>       0.00161122 </v>
   <v>       0.00161122 </v>
   <v>       0.00080561 </v>
   <v>       0.00080561 </v>
   <v>       0.00161122 </v>
   <v>       0.00161122 </v>
   <v>       0.00161122 </v>
   <v>       0.00161122 </v>
   <v>       0.00080561 </v>
   <v>       0.00080561 </v>
   <v>       0.00161122 </v>
   <v>       0.00161122 </v>
   <v>       0.00080561 </v>
   <v>       0.00080561 </v>
   <v>       0.00080561 </v>
   <v>       0.00080561 </v>
   <v>       0.00161122 </v>
   <v>       0.00161122 </v>
   <v>       0.00161122 </v>
   <v>       0.00161122 </v>
   <v>       0.00161122 </v>
   <v>       0.00161122 </v>
   <v>       0.00161122 </v>
   <v>       0.00161122 </v>
   <v>       0.00161122 </v>
   <v>       0.00080561 </v>
   <v>       0.00161122 </v>
   <v>       0.00161122 </v>
   <v>       0.00161122 </v>
   <v>       0.00161122 </v>
   <v>       0.00161122 </v>
   <v>       0.00161122 </v>
   <v>       0.00161122 </v>
   <v>       0.00161122 </v>
   <v>       0.00161122 </v>
   <v>       0.00161122 </v>
   <v>       0.00161122 </v>
   <v>       0.00161122 </v>
   <v>       0.00161122 </v>
   <v>       0.00161122 </v>
   <v>       0.00161122 </v>
   <v>       0.00161122 </v>
   <v>       0.00080561 </v>
   <v>       0.00080561 </v>
   <v>       0.00161122 </v>
   <v>       0.00161122 </v>
   <v>       0.00161122 </v>
   <v>       0.00161122 </v>
   <v>       0.00161122 </v>
   <v>       0.00161122 </v>
   <v>       0.00161122 </v>
   <v>       0.00161122 </v>
   <v>       0.00161122 </v>
   <v>       0.00161122 </v>
   <v>       0.00161122 </v>
   <v>       0.00161122 </v>
   <v>       0.00161122 </v>
   <v>       0.00161122 </v>
   <v>       0.00080561 </v>
   <v>       0.00080561 </v>
   <v>       0.00161122 </v>
   <v>       0.00161122 </v>
   <v>       0.00161122 </v>
   <v>       0.00161122 </v>
   <v>       0.00161122 </v>
   <v>       0.00161122 </v>
   <v>       0.00161122 </v>
   <v>       0.00161122 </v>
   <v>       0.00161122 </v>
   <v>       0.00161122 </v>
   <v>       0.00161122 </v>
   <v>       0.00161122 </v>
   <v>       0.00080561 </v>
   <v>       0.00080561 </v>
   <v>       0.00161122 </v>
   <v>       0.00161122 </v>
   <v>       0.00161122 </v>
   <v>       0.00161122 </v>
   <v>       0.00161122 </v>
   <v>       0.00161122 </v>
   <v>       0.00161122 </v>
   <v>       0.00161122 </v>
   <v>       0.00161122 </v>
   <v>       0.00161122 </v>
   <v>       0.00080561 </v>
   <v>       0.00080561 </v>
   <v>       0.00161122 </v>
   <v>       0.00161122 </v>
   <v>       0.00161122 </v>
   <v>       0.00161122 </v>
   <v>       0.00161122 </v>
   <v>       0.00161122 </v>
   <v>       0.00161122 </v>
   <v>       0.00161122 </v>
   <v>       0.00080561 </v>
   <v>       0.00080561 </v>
   <v>       0.00161122 </v>
   <v>       0.00161122 </v>
   <v>       0.00161122 </v>
   <v>       0.00161122 </v>
   <v>       0.00161122 </v>
   <v>       0.00161122 </v>
   <v>       0.00080561 </v>
   <v>       0.00080561 </v>
   <v>       0.00161122 </v>
   <v>       0.00161122 </v>
   <v>       0.00161122 </v>
   <v>       0.00161122 </v>
   <v>       0.00080561 </v>
   <v>       0.00080561 </v>
   <v>       0.00161122 </v>
   <v>       0.00161122 </v>
   <v>       0.00080561 </v>
   <v>       0.00080561 </v>
   <v>       0.00080561 </v>
   <v>       0.00080561 </v>
   <v>       0.00161122 </v>
   <v>       0.00161122 </v>
   <v>       0.00161122 </v>
   <v>       0.00161122 </v>
   <v>       0.00161122 </v>
   <v>       0.00161122 </v>
   <v>       0.00161122 </v>
   <v>       0.00080561 </v>
   <v>       0.00161122 </v>
   <v>       0.00161122 </v>
   <v>       0.00161122 </v>
   <v>       0.00161122 </v>
   <v>       0.00161122 </v>
   <v>       0.00161122 </v>
   <v>       0.00161122 </v>
   <v>       0.00161122 </v>
   <v>       0.00161122 </v>
   <v>       0.00161122 </v>
   <v>       0.00161122 </v>
   <v>       0.00161122 </v>
   <v>       0.00080561 </v>
   <v>       0.00080561 </v>
   <v>       0.00161122 </v>
   <v>       0.00161122 </v>
   <v>       0.00161122 </v>
   <v>       0.00161122 </v>
   <v>       0.00161122 </v>
   <v>       0.00161122 </v>
   <v>       0.00161122 </v>
   <v>       0.00161122 </v>
   <v>       0.00161122 </v>
   <v>       0.00161122 </v>
   <v>       0.00080561 </v>
   <v>       0.00080561 </v>
   <v>       0.00161122 </v>
   <v>       0.00161122 </v>
   <v>       0.00161122 </v>
   <v>       0.00161122 </v>
   <v>       0.00161122 </v>
   <v>       0.00161122 </v>
   <v>       0.00161122 </v>
   <v>       0.00161122 </v>
   <v>       0.00080561 </v>
   <v>       0.00080561 </v>
   <v>       0.00161122 </v>
   <v>       0.00161122 </v>
   <v>       0.00161122 </v>
   <v>       0.00161122 </v>
   <v>       0.00161122 </v>
   <v>       0.00161122 </v>
   <v>       0.00080561 </v>
   <v>       0.00080561 </v>
   <v>       0.00161122 </v>
   <v>       0.00161122 </v>
   <v>       0.00161122 </v>
   <v>       0.00161122 </v>
   <v>       0.00080561 </v>
   <v>       0.00080561 </v>
   <v>       0.00161122 </v>
   <v>       0.00161122 </v>
   <v>       0.00080561 </v>
   <v>       0.00080561 </v>
   <v>       0.00080561 </v>
   <v>       0.00080561 </v>
   <v>       0.00161122 </v>
   <v>       0.00161122 </v>
   <v>       0.00161122 </v>
   <v>       0.00161122 </v>
   <v>       0.00161122 </v>
   <v>       0.00080561 </v>
   <v>       0.00161122 </v>
   <v>       0.00161122 </v>
   <v>       0.00161122 </v>
   <v>       0.00161122 </v>
   <v>       0.00161122 </v>
   <v>       0.00161122 </v>
   <v>       0.00161122 </v>
   <v>       0.00161122 </v>
   <v>       0.00080561 </v>
   <v>       0.00080561 </v>
   <v>       0.00161122 </v>
   <v>       0.00161122 </v>
   <v>       0.00161122 </v>
   <v>       0.00161122 </v>
   <v>       0.00161122 </v>
   <v>       0.00161122 </v>
   <v>       0.00080561 </v>
   <v>       0.00080561 </v>
   <v>       0.00161122 </v>
   <v>       0.00161122 </v>
   <v>       0.00161122 </v>
   <v>       0.00161122 </v>
   <v>       0.00080561 </v>
   <v>       0.00080561 </v>
   <v>       0.00161122 </v>
   <v>       0.00161122 </v>
   <v>       0.00080561 </v>
   <v>       0.00080561 </v>
   <v>       0.00080561 </v>
   <v>       0.00080561 </v>
   <v>       0.00161122 </v>
   <v>       0.00161122 </v>
   <v>       0.00161122 </v>
   <v>       0.00080561 </v>
   <v>       0.00161122 </v>
   <v>       0.00161122 </v>
   <v>       0.00161122 </v>
   <v>       0.00161122 </v>
   <v>       0.00080561 </v>
   <v>       0.00080561 </v>
   <v>       0.00161122 </v>
   <v>       0.00161122 </v>
   <v>       0.00080561 </v>
   <v>       0.00080561 </v>
   <v>       0.00080561 </v>
   <v>       0.00080561 </v>
   <v>       0.00161122 </v>
   <v>       0.00080561 </v>
   <v>       0.00080561 </v>
  </varray>
  <varray name="tetrahedronlist"  type="int" >
   <v type="int" >       24        1        2        2       17 </v>
   <v type="int" >       48        2       17       18       46 </v>
   <v type="int" >       48        2        3       18       46 </v>
   <v type="int" >       24        2        2       17       46 </v>
   <v type="int" >       48        3       18       19       45 </v>
   <v type="int" >       48        3        4       19       45 </v>
   <v type="int" >       48        3       18       45       46 </v>
   <v type="int" >       48        4       19       20       44 </v>
   <v type="int" >       48        4        5       20       44 </v>
   <v type="int" >       48        4       19       44       45 </v>
   <v type="int" >       48        5       20       21       43 </v>
   <v type="int" >       48        5        6       21       43 </v>
   <v type="int" >       48        5       20       43       44 </v>
   <v type="int" >       48        6       21       22       42 </v>
   <v type="int" >       48        6        7       22       42 </v>
   <v type="int" >       48        6       21       42       43 </v>
   <v type="int" >       48        7       22       23       41 </v>
   <v type="int" >       48        7        8       23       41 </v>
   <v type="int" >       48        7       22       41       42 </v>
   <v type="int" >       48        8       23       24       40 </v>
   <v type="int" >       48        8        9       24       40 </v>
   <v type="int" >       48        8       23       40       41 </v>
   <v type="int" >       48        9       24       25       39 </v>
   <v type="int" >       48        9       10       25       39 </v>
   <v type="int" >       48        9       24       39       40 </v>
   <v type="int" >       48       10       25       26       38 </v>
   <v type="int" >       48       10       11       26       38 </v>
   <v type="int" >       48       10       25       38       39 </v>
   <v type="int" >       48       11       26       27       37 </v>
   <v type="int" >       48       11       12       27       37 </v>
   <v type="int" >       48       11       26       37       38 </v>
   <v type="int" >       48       12       27       28       36 </v>
   <v type="int" >       48       12       13       28       36 </v>
   <v type="int" >       48       12       27       36       37 </v>
   <v type="int" >       48       13       28       29       35 </v>
   <v type="int" >       48       13       14       29       35 </v>
   <v type="int" >       48       13       28       35       36 </v>
   <v type="int" >       48       14       29       30       34 </v>
   <v type="int" >       48       14       15       30       34 </v>
   <v type="int" >       48       14       29       34       35 </v>
   <v type="int" >       48       15       30       31       33 </v>
   <v type="int" >       48       15       16       31       33 </v>
   <v type="int" >       48       15       30       33       34 </v>
   <v type="int" >       48       16       31       32       32 </v>
   <v type="int" >       24       16       16       32       32 </v>
[...]
       <r>   26.1348    0.0000 </r>
       <r>   26.3022    0.0000 </r>
      </set>
      <set comment="kpoint 812">
       <r>   -2.1033    1.0000 </r>
       <r>   -1.8716    1.0000 </r>
       <r>    1.7792    1.0000 </r>
       <r>    2.0430    1.0000 </r>
       <r>    8.9994    0.0000 </r>
       <r>    9.4940    0.0000 </r>
       <r>   11.2255    0.0000 </r>
       <r>   11.2798    0.0000 </r>
       <r>   15.7885    0.0000 </r>
       <r>   16.2517    0.0000 </r>
       <r>   18.2535    0.0000 </r>
       <r>   18.7676    0.0000 </r>
       <r>   21.7306    0.0000 </r>
       <r>   22.1708    0.0000 </r>
       <r>   23.4251    0.0000 </r>
       <r>   23.4737    0.0000 </r>
       <r>   24.0378    0.0000 </r>
       <r>   24.3964    0.0000 </r>
       <r>   25.5344    0.0000 </r>
       <r>   26.1930    0.0000 </r>
      </set>
      <set comment="kpoint 813">
       <r>   -2.4774    1.0000 </r>
       <r>   -1.4972    1.0000 </r>
       <r>    1.6618    1.0000 </r>
       <r>    2.2234    1.0000 </r>
       <r>    9.5309    0.0000 </r>
       <r>    9.5993    0.0000 </r>
       <r>   10.2276    0.0000 </r>
       <r>   11.7114    0.0000 </r>
       <r>   15.0911    0.0000 </r>
       <r>   16.4149    0.0000 </r>
       <r>   18.0970    0.0000 </r>
       <r>   19.3889    0.0000 </r>
       <r>   20.9959    0.0000 </r>
       <r>   22.2496    0.0000 </r>
       <r>   22.8521    0.0000 </r>
       <r>   23.7829    0.0000 </r>
       <r>   24.8426    0.0000 </r>
       <r>   25.0856    0.0000 </r>
       <r>   25.3022    0.0000 </r>
       <r>   25.7286    0.0000 </r>
      </set>
      <set comment="kpoint 814">
       <r>   -2.3140    1.0000 </r>
       <r>   -1.6500    1.0000 </r>
       <r>    1.6629    1.0000 </r>
       <r>    2.1300    1.0000 </r>
       <r>    9.5946    0.0000 </r>
       <r>    9.8606    0.0000 </r>
       <r>   10.4248    0.0000 </r>
       <r>   11.0843    0.0000 </r>
       <r>   15.3329    0.0000 </r>
       <r>   16.4776    0.0000 </r>
       <r>   18.0285    0.0000 </r>
       <r>   19.2190    0.0000 </r>
       <r>   21.2224    0.0000 </r>
       <r>   22.3459    0.0000 </r>
       <r>   23.4265    0.0000 </r>
       <r>   23.7443    0.0000 </r>
       <r>   24.5270    0.0000 </r>
       <r>   24.9152    0.0000 </r>
       <r>   25.0120    0.0000 </r>
       <r>   25.6327    0.0000 </r>
      </set>
      <set comment="kpoint 815">
       <r>   -2.1445    1.0000 </r>
       <r>   -1.8167    1.0000 </r>
       <r>    1.7867    1.0000 </r>
       <r>    1.9743    1.0000 </r>
       <r>    9.5508    0.0000 </r>
       <r>    9.5890    0.0000 </r>
       <r>   10.6371    0.0000 </r>
       <r>   11.1490    0.0000 </r>
       <r>   15.7647    0.0000 </r>
       <r>   16.3146    0.0000 </r>
       <r>   18.2268    0.0000 </r>
       <r>   18.7774    0.0000 </r>
       <r>   21.6377    0.0000 </r>
       <r>   22.1887    0.0000 </r>
       <r>   23.5507    0.0000 </r>
       <r>   23.7790    0.0000 </r>
       <r>   24.2468    0.0000 </r>
       <r>   24.4498    0.0000 </r>
       <r>   25.3824    0.0000 </r>
       <r>   25.6226    0.0000 </r>
      </set>
      <set comment="kpoint 816">
       <r>   -2.1175    1.0000 </r>
       <r>   -1.8373    1.0000 </r>
       <r>    1.7507    1.0000 </r>
       <r>    1.9786    1.0000 </r>
       <r>    9.6384    0.0000 </r>
       <r>    9.9991    0.0000 </r>
       <r>   10.5774    0.0000 </r>
       <r>   10.6764    0.0000 </r>
       <r>   15.7756    0.0000 </r>
       <r>   16.2866    0.0000 </r>
       <r>   18.2488    0.0000 </r>
       <r>   18.7886    0.0000 </r>
       <r>   21.6456    0.0000 </r>
       <r>   22.1390    0.0000 </r>
       <r>   23.7531    0.0000 </r>
       <r>   24.0234    0.0000 </r>
       <r>   24.3545    0.0000 </r>
       <r>   24.4171    0.0000 </r>
       <r>   24.9758    0.0000 </r>
       <r>   25.5029    0.0000 </r>
      </set>
     </set>
    </set>
   </array>
  </eigenvalues>
  <separator name="orbital magnetization" >
   <v name="MAGDIPOLOUT">      0.00000000      0.00000000      0.00000000</v>
  </separator>
  <dos>
   <i name="efermi">      5.68281267 </i>
   <total>
    <array>
     <dimension dim="1">gridpoints</dimension>
     <dimension dim="2">spin</dimension>
     <field>energy</field>
     <field>total</field>
     <field>integrated</field>
     <set>
      <set comment="spin 1">
       <r>    -8.1989     0.0000     0.0000 </r>
       <r>    -8.0616     0.0000     0.0000 </r>
       <r>    -7.9243     0.0000     0.0000 </r>
       <r>    -7.7871     0.0000     0.0000 </r>
       <r>    -7.6498     0.0000     0.0000 </r>
       <r>    -7.5125     0.0000     0.0000 </r>
       <r>    -7.3752     0.0000     0.0000 </r>
       <r>    -7.2380     0.0000     0.0000 </r>
       <r>    -7.1007     0.0000     0.0000 </r>
       <r>    -6.9634     0.0000     0.0000 </r>
       <r>    -6.8261     0.0000     0.0000 </r>
       <r>    -6.6889     0.0000     0.0000 </r>
       <r>    -6.5516     0.0000     0.0000 </r>
       <r>    -6.4143     0.0000     0.0000 </r>
       <r>    -6.2771     0.0000     0.0000 </r>
       <r>    -6.1398     0.0808     0.0030 </r>
       <r>    -6.0025     0.1552     0.0199 </r>
       <r>    -5.8652     0.2065     0.0448 </r>
       <r>    -5.7280     0.2470     0.0760 </r>
       <r>    -5.5907     0.2839     0.1125 </r>
       <r>    -5.4534     0.3180     0.1539 </r>
       <r>    -5.3161     0.3508     0.1997 </r>
       <r>    -5.1789     0.3815     0.2500 </r>
       <r>    -5.0416     0.4121     0.3045 </r>
       <r>    -4.9043     0.4435     0.3632 </r>
       <r>    -4.7671     0.4757     0.4263 </r>
       <r>    -4.6298     0.5090     0.4938 </r>
       <r>    -4.4925     0.5456     0.5662 </r>
       <r>    -4.3552     0.5868     0.6438 </r>
       <r>    -4.2180     0.6361     0.7276 </r>
       <r>    -4.0807     0.7033     0.8193 </r>
       <r>    -3.9434     0.8382     0.9233 </r>
       <r>    -3.8061     0.8898     1.0469 </r>
       <r>    -3.6689     0.8351     1.1654 </r>
       <r>    -3.5316     0.7911     1.2771 </r>
       <r>    -3.3943     0.7429     1.3821 </r>
       <r>    -3.2571     0.6932     1.4805 </r>
       <r>    -3.1198     0.6438     1.5721 </r>
       <r>    -2.9825     0.5918     1.6569 </r>
       <r>    -2.8452     0.5387     1.7347 </r>
       <r>    -2.7080     0.4848     1.8050 </r>
       <r>    -2.5707     0.4246     1.8675 </r>
       <r>    -2.4334     0.3618     1.9216 </r>
       <r>    -2.2962     0.3028     1.9669 </r>
       <r>    -2.1589     0.1099     1.9959 </r>
       <r>    -2.0216     0.0337     2.0012 </r>
       <r>    -1.8843     0.1632     2.0139 </r>
       <r>    -1.7471     0.2696     2.0458 </r>
       <r>    -1.6098     0.3583     2.0891 </r>
       <r>    -1.4725     0.4436     2.1437 </r>
       <r>    -1.3352     0.5421     2.2109 </r>
       <r>    -1.1980     0.9503     2.3026 </r>
       <r>    -1.0607     1.6763     2.5132 </r>
       <r>    -0.9234     1.0140     2.6832 </r>
       <r>    -0.7862     0.8199     2.8077 </r>
       <r>    -0.6489     0.7073     2.9118 </r>
       <r>    -0.5116     0.6230     3.0029 </r>
       <r>    -0.3743     0.5640     3.0843 </r>
       <r>    -0.2371     0.5096     3.1579 </r>
       <r>    -0.0998     0.4688     3.2250 </r>
       <r>     0.0375     0.4283     3.2865 </r>
       <r>     0.1748     0.3976     3.3432 </r>
       <r>     0.3120     0.3646     3.3956 </r>
       <r>     0.4493     0.3405     3.4440 </r>
       <r>     0.5866     0.3142     3.4889 </r>
       <r>     0.7238     0.2927     3.5305 </r>
       <r>     0.8611     0.2720     3.5693 </r>
       <r>     0.9984     0.2516     3.6051 </r>
       <r>     1.1357     0.2355     3.6386 </r>
       <r>     1.2729     0.2169     3.6697 </r>
       <r>     1.4102     0.6666     3.7273 </r>
       <r>     1.5475     1.0653     3.8437 </r>
       <r>     1.6848     1.2322     4.0151 </r>
       <r>     1.8220     1.1035     4.1758 </r>
       <r>     1.9593     1.0189     4.3211 </r>
       <r>     2.0966     1.0356     4.4636 </r>
       <r>     2.2338     1.0609     4.6079 </r>
       <r>     2.3711     1.1005     4.7559 </r>
       <r>     2.5084     1.1559     4.9107 </r>
       <r>     2.6457     1.2446     5.0745 </r>
       <r>     2.7829     1.4492     5.2553 </r>
       <r>     2.9202     1.5432     5.4670 </r>
       <r>     3.0575     1.5039     5.6768 </r>
       <r>     3.1947     1.4658     5.8809 </r>
       <r>     3.3320     1.4291     6.0794 </r>
       <r>     3.4693     1.3933     6.2724 </r>
       <r>     3.6066     1.3463     6.4607 </r>
       <r>     3.7438     1.3162     6.6432 </r>
       <r>     3.8811     1.2767     6.8211 </r>
       <r>     4.0184     1.2402     6.9938 </r>
       <r>     4.1557     1.2132     7.1624 </r>
       <r>     4.2929     1.1846     7.3268 </r>
       <r>     4.4302     1.1233     7.4876 </r>
       <r>     4.5675     0.7786     7.6112 </r>
       <r>     4.7047     0.6269     7.7072 </r>
       <r>     4.8420     0.5162     7.7854 </r>
       <r>     4.9793     0.4220     7.8496 </r>
       <r>     5.1166     0.3411     7.9017 </r>
       <r>     5.2538     0.2640     7.9432 </r>
       <r>     5.3911     0.1927     7.9745 </r>
       <r>     5.5284     0.1056     7.9952 </r>
       <r>     5.6657     0.0000     8.0000 </r>
       <r>     5.8029     0.0000     8.0000 </r>
       <r>     5.9402     0.0000     8.0000 </r>
       <r>     6.0775     0.0000     8.0000 </r>
       <r>     6.2147     0.0000     8.0000 </r>
       <r>     6.3520     0.1369     8.0089 </r>
       <r>     6.4893     0.2714     8.0372 </r>
       <r>     6.6266     0.3606     8.0806 </r>
       <r>     6.7638     0.4489     8.1365 </r>
       <r>     6.9011     0.5183     8.2028 </r>
       <r>     7.0384     0.5952     8.2792 </r>
       <r>     7.1757     0.7351     8.3686 </r>
       <r>     7.3129     0.8526     8.4773 </r>
       <r>     7.4502     0.9870     8.6034 </r>
       <r>     7.5875     1.1490     8.7497 </r>
       <r>     7.7247     1.4057     8.9227 </r>
       <r>     7.8620     1.6556     9.1428 </r>
       <r>     7.9993     1.6360     9.3690 </r>
       <r>     8.1366     1.4597     9.5823 </r>
       <r>     8.2738     1.2658     9.7714 </r>
       <r>     8.4111     1.1494     9.9371 </r>
       <r>     8.5484     1.1597    10.0939 </r>
       <r>     8.6856     0.9499    10.2394 </r>
       <r>     8.8229     1.3347    10.3802 </r>
       <r>     8.9602     2.4664    10.6766 </r>
       <r>     9.0975     1.8480    10.9693 </r>
       <r>     9.2347     1.6784    11.2040 </r>
       <r>     9.3720     1.7966    11.4456 </r>
       <r>     9.5093     1.5152    11.6818 </r>
       <r>     9.6466     1.1896    11.8665 </r>
       <r>     9.7838     1.1377    12.0241 </r>
       <r>     9.9211     1.1667    12.1840 </r>
       <r>    10.0584     1.3120    12.3527 </r>
       <r>    10.1956     1.3422    12.5504 </r>
       <r>    10.3329     1.2487    12.7256 </r>
       <r>    10.4702     1.2640    12.8984 </r>
       <r>    10.6075     1.3028    13.0737 </r>
       <r>    10.7447     1.2050    13.2402 </r>
       <r>    10.8820     1.2025    13.4044 </r>
       <r>    11.0193     1.1590    13.5678 </r>
       <r>    11.1566     1.1700    13.7317 </r>
       <r>    11.2938     1.0915    13.8850 </r>
       <r>    11.4311     1.0536    14.0352 </r>
       <r>    11.5684     1.0854    14.1804 </r>
       <r>    11.7056     1.0016    14.3234 </r>
       <r>    11.8429     1.0127    14.4613 </r>
       <r>    11.9802     0.9748    14.6005 </r>
       <r>    12.1175     1.1728    14.7433 </r>
       <r>    12.2547     1.4178    14.9292 </r>
       <r>    12.3920     1.2457    15.1146 </r>
       <r>    12.5293     1.1239    15.2774 </r>
       <r>    12.6666     1.0584    15.4260 </r>
       <r>    12.8038     1.1696    15.5765 </r>
       <r>    12.9411     1.1533    15.7395 </r>
       <r>    13.0784     1.1763    15.8979 </r>
       <r>    13.2156     1.2938    16.0664 </r>
       <r>    13.3529     1.3635    16.2461 </r>
       <r>    13.4902     1.3571    16.4396 </r>
       <r>    13.6275     1.2514    16.6226 </r>
       <r>    13.7647     1.1227    16.7822 </r>
       <r>    13.9020     1.1249    16.9363 </r>
       <r>    14.0393     1.1639    17.0926 </r>
       <r>    14.1765     1.2049    17.2554 </r>
       <r>    14.3138     1.2747    17.4251 </r>
       <r>    14.4511     1.3178    17.6023 </r>
       <r>    14.5884     1.3155    17.7846 </r>
       <r>    14.7256     1.3898    17.9686 </r>
       <r>    14.8629     1.4136    18.1619 </r>
       <r>    15.0002     1.4012    18.3550 </r>
       <r>    15.1375     1.3948    18.5472 </r>
       <r>    15.2747     1.3592    18.7367 </r>
       <r>    15.4120     1.3611    18.9217 </r>
       <r>    15.5493     1.3185    19.1068 </r>
       <r>    15.6865     1.3076    19.2867 </r>
       <r>    15.8238     1.2805    19.4673 </r>
       <r>    15.9611     1.2405    19.6407 </r>
       <r>    16.0984     1.1619    19.8050 </r>
       <r>    16.2356     1.1667    19.9634 </r>
       <r>    16.3729     1.2156    20.1299 </r>
       <r>    16.5102     1.4355    20.3064 </r>
       <r>    16.6475     1.4113    20.5036 </r>
       <r>    16.7847     1.2452    20.6913 </r>
       <r>    16.9220     1.0905    20.8543 </r>
       <r>    17.0593     1.0424    20.9996 </r>
       <r>    17.1965     1.1007    21.1421 </r>
       <r>    17.3338     1.2680    21.3093 </r>
       <r>    17.4711     1.5884    21.4934 </r>
       <r>    17.6084     1.5842    21.7032 </r>
       <r>    17.7456     1.6933    21.9294 </r>
       <r>    17.8829     1.7244    22.1633 </r>
       <r>    18.0202     1.7265    22.4017 </r>
       <r>    18.1575     1.7070    22.6372 </r>
       <r>    18.2947     1.5128    22.8614 </r>
       <r>    18.4320     1.5083    23.0668 </r>
       <r>    18.5693     1.5144    23.2725 </r>
       <r>    18.7065     1.4566    23.4774 </r>
       <r>    18.8438     1.3904    23.6742 </r>
       <r>    18.9811     1.4120    23.8615 </r>
       <r>    19.1184     1.5881    24.0688 </r>
       <r>    19.2556     1.8308    24.2989 </r>
       <r>    19.3929     2.1130    24.5734 </r>
       <r>    19.5302     1.8492    24.8383 </r>
       <r>    19.6674     1.7890    25.0931 </r>
       <r>    19.8047     1.7230    25.3325 </r>
       <r>    19.9420     1.2257    25.5306 </r>
       <r>    20.0793     1.1771    25.6917 </r>
       <r>    20.2165     1.2724    25.8552 </r>
       <r>    20.3538     1.3411    26.0345 </r>
       <r>    20.4911     1.3638    26.2182 </r>
       <r>    20.6284     1.6290    26.4193 </r>
       <r>    20.7656     2.0484    26.6772 </r>
       <r>    20.9029     1.7438    26.9344 </r>
       <r>    21.0402     1.4194    27.1478 </r>
       <r>    21.1774     1.3632    27.3338 </r>
       <r>    21.3147     1.3246    27.5163 </r>
       <r>    21.4520     1.2876    27.6984 </r>
       <r>    21.5893     1.3227    27.8762 </r>
       <r>    21.7265     1.2880    28.0510 </r>
       <r>    21.8638     1.3433    28.2346 </r>
       <r>    22.0011     1.3592    28.4168 </r>
       <r>    22.1384     1.6068    28.6194 </r>
       <r>    22.2756     1.6709    28.8507 </r>
       <r>    22.4129     1.6229    29.0810 </r>
       <r>    22.5502     1.4600    29.2912 </r>
       <r>    22.6874     1.5285    29.4932 </r>
       <r>    22.8247     1.5940    29.7125 </r>
       <r>    22.9620     1.5608    29.9255 </r>
       <r>    23.0993     1.6905    30.1497 </r>
       <r>    23.2365     1.7538    30.3875 </r>
       <r>    23.3738     1.6995    30.6241 </r>
       <r>    23.5111     1.7744    30.8623 </r>
       <r>    23.6484     1.7253    31.1009 </r>
       <r>    23.7856     1.9902    31.3629 </r>
       <r>    23.9229     1.8193    31.6300 </r>
       <r>    24.0602     1.7282    31.8745 </r>
       <r>    24.1974     1.5521    32.0982 </r>
       <r>    24.3347     1.9286    32.3258 </r>
       <r>    24.4720     2.1671    32.6187 </r>
       <r>    24.6093     1.8887    32.9010 </r>
       <r>    24.7465     1.8837    33.1585 </r>
       <r>    24.8838     1.8762    33.4116 </r>
       <r>    25.0211     1.8481    33.6704 </r>
       <r>    25.1583     1.7232    33.9103 </r>
       <r>    25.2956     1.5530    34.1364 </r>
       <r>    25.4329     1.3691    34.3475 </r>
       <r>    25.5702     1.3031    34.5291 </r>
       <r>    25.7074     1.4078    34.7097 </r>
       <r>    25.8447     1.5352    34.9135 </r>
       <r>    25.9820     1.6709    35.1384 </r>
       <r>    26.1193     1.6568    35.3614 </r>
       <r>    26.2565     1.8816    35.6062 </r>
       <r>    26.3938     1.7936    35.8564 </r>
       <r>    26.5311     1.7672    36.0972 </r>
       <r>    26.6683     2.0706    36.3535 </r>
       <r>    26.8056     1.8356    36.6279 </r>
       <r>    26.9429     1.7002    36.8663 </r>
       <r>    27.0802     1.6815    37.1025 </r>
       <r>    27.2174     1.8335    37.3371 </r>
       <r>    27.3547     1.9048    37.5973 </r>
       <r>    27.4920     1.6986    37.8489 </r>
       <r>    27.6293     1.6298    38.0790 </r>
       <r>    27.7665     1.4891    38.2886 </r>
       <r>    27.9038     1.4425    38.4915 </r>
       <r>    28.0411     1.3290    38.6863 </r>
       <r>    28.1783     1.1617    38.8560 </r>
       <r>    28.3156     1.1301    39.0129 </r>
       <r>    28.4529     1.0246    39.1652 </r>
       <r>    28.5902     0.9347    39.2983 </r>
       <r>    28.7274     0.8451    39.4203 </r>
       <r>    28.8647     0.8071    39.5327 </r>
       <r>    29.0020     0.8366    39.6453 </r>
       <r>    29.1393     0.7887    39.7625 </r>
       <r>    29.2765     0.4869    39.8480 </r>
       <r>    29.4138     0.2508    39.8998 </r>
       <r>    29.5511     0.1563    39.9268 </r>
       <r>    29.6883     0.1200    39.9454 </r>
       <r>    29.8256     0.0903    39.9599 </r>
       <r>    29.9629     0.0702    39.9705 </r>
       <r>    30.1002     0.0559    39.9795 </r>
       <r>    30.2374     0.0385    39.9859 </r>
       <r>    30.3747     0.0348    39.9911 </r>
       <r>    30.5120     0.0213    39.9949 </r>
       <r>    30.6492     0.0188    39.9974 </r>
       <r>    30.7865     0.0086    39.9994 </r>
       <r>    30.9238     0.0009    40.0000 </r>
       <r>    31.0611     0.0000    40.0000 </r>
       <r>    31.1983     0.0000    40.0000 </r>
       <r>    31.3356     0.0000    40.0000 </r>
       <r>    31.4729     0.0000    40.0000 </r>
       <r>    31.6102     0.0000    40.0000 </r>
       <r>    31.7474     0.0000    40.0000 </r>
       <r>    31.8847     0.0000    40.0000 </r>
       <r>    32.0220     0.0000    40.0000 </r>
       <r>    32.1592     0.0000    40.0000 </r>
       <r>    32.2965     0.0000    40.0000 </r>
       <r>    32.4338     0.0000    40.0000 </r>
       <r>    32.5711     0.0000    40.0000 </r>
       <r>    32.7083     0.0000    40.0000 </r>
       <r>    32.8456     0.0000    40.0000 </r>
       <r>    32.9829     0.0000    40.0000 </r>
      </set>
     </set>
    </array>
   </total>
  </dos>
 </calculation>
 <structure name="finalpos" >
  <crystal>
   <varray name="basis" >
    <v>       0.00000000       2.73436000       2.73436000 </v>
    <v>       2.73436000       0.00000000       2.73436000 </v>
    <v>       2.73436000       2.73436000       0.00000000 </v>
   </varray>
   <i name="volume">     40.88811341 </i>
   <varray name="rec_basis" >
    <v>      -0.18285815       0.18285815       0.18285815 </v>
    <v>       0.18285815      -0.18285815       0.18285815 </v>
    <v>       0.18285815       0.18285815      -0.18285815 </v>
   </varray>
  </crystal>
  <varray name="positions" >
   <v>       0.00000000       0.00000000       0.00000000 </v>
   <v>       0.25000000       0.25000000       0.25000000 </v>
  </varray>
 </structure>
</modeling>
