    2    2    1    1
  0.2044555E+02  0.3867063E-09  0.3867063E-09  0.3867063E-09  0.5000000E-16
  1.000000000000000E-004
  CAR 
 bulk	                                   
      8    170     20
 
  0.0000000E+00  0.0000000E+00  0.0000000E+00  0.5882353E-02
    1       -6.423846   1.000000
    2        5.183421   1.000000
    3        5.183421   1.000000
    4        5.486890   0.999998
    5        8.005893   0.000000
    6        8.020749   0.000000
    7        8.020749   0.000000
    8        8.527593   0.000000
    9       13.195779   0.000000
   10       13.195779   0.000000
   11       13.591061   0.000000
   12       16.684044   0.000000
   13       16.839702   0.000000
   14       16.839702   0.000000
   15       21.294592   0.000000
   16       28.193709   0.000000
   17       28.273264   0.000000
   18       28.273267   0.000000
   19       29.329807   0.000000
   20       29.329877   0.000000
 
  0.0000000E+00 -0.2467212E-01 -0.2467212E-01  0.5882353E-02
    1       -6.413493   1.000000
    2        5.116095   1.000000
    3        5.144694   1.000000
    4        5.439729   1.000000
    5        7.988049   0.000000
    6        8.066772   0.000000
    7        8.072329   0.000000
    8        8.601261   0.000000
    9       13.114945   0.000000
   10       13.207373   0.000000
   11       13.635900   0.000000
   12       16.715600   0.000000
   13       16.857832   0.000000
   14       16.887600   0.000000
   15       21.364448   0.000000
   16       28.048057   0.000000
   17       28.098902   0.000000
   18       28.266770   0.000000
   19       29.201531   0.000000
   20       29.234131   0.000000
 
  0.0000000E+00 -0.2056010E-01 -0.2056010E-01  0.5882353E-02
    1       -6.416660   1.000000
    2        5.136396   1.000000
    3        5.156370   1.000000
    4        5.453883   1.000000
    5        7.995094   0.000000
    6        8.051185   0.000000
    7        8.056724   0.000000
    8        8.579198   0.000000
    9       13.139175   0.000000
   10       13.203832   0.000000
   11       13.622242   0.000000
   12       16.706586   0.000000
   13       16.852296   0.000000
   14       16.872738   0.000000
   15       21.343145   0.000000
   16       28.094805   0.000000
   17       28.150092   0.000000
   18       28.264673   0.000000
   19       29.240216   0.000000
   20       29.262538   0.000000
 
  0.0000000E+00 -0.1644808E-01 -0.1644808E-01  0.5882353E-02
    1       -6.419246   1.000000
    2        5.153186   1.000000
    3        5.166028   1.000000
    4        5.465632   1.000000
    5        8.000626   0.000000
    6        8.038625   0.000000
    7        8.043857   0.000000
    8        8.560870   0.000000
    9       13.159305   0.000000
   10       13.200933   0.000000
   11       13.611044   0.000000
   12       16.698832   0.000000
   13       16.847768   0.000000
   14       16.860703   0.000000
   15       21.325689   0.000000
   16       28.132890   0.000000
   17       28.193300   0.000000
   18       28.264323   0.000000
   19       29.272266   0.000000
   20       29.286353   0.000000
 
  0.0000000E+00 -0.1233606E-01 -0.1233606E-01  0.5882353E-02
    1       -6.421264   1.000000
    2        5.166347   1.000000
    3        5.173597   1.000000
    4        5.474870   0.999999
    5        8.004402   0.000000
    6        8.029345   0.000000
    7        8.033783   0.000000
    8        8.546413   0.000000
    9       13.175155   0.000000
   10       13.198677   0.000000
   11       13.602310   0.000000
   12       16.692526   0.000000
   13       16.844237   0.000000
   14       16.851442   0.000000
   15       21.312092   0.000000
   16       28.161389   0.000000
   17       28.227703   0.000000
   18       28.265842   0.000000
   19       29.297323   0.000000
   20       29.305126   0.000000
 
  0.0000000E+00 -0.8224040E-02 -0.8224040E-02  0.5882353E-02
    1       -6.422701   1.000000
    2        5.175811   1.000000
    3        5.179043   1.000000
    4        5.481527   0.999999
    5        8.006134   0.000000
    6        8.023669   0.000000
    7        8.026554   0.000000
    8        8.535991   0.000000
    9       13.186575   0.000000
   10       13.197067   0.000000
   11       13.596064   0.000000
   12       16.687868   0.000000
   13       16.841716   0.000000
   14       16.844894   0.000000
   15       21.302373   0.000000
   16       28.180290   0.000000
   17       28.252831   0.000000
   18       28.268863   0.000000
   19       29.315375   0.000000
   20       29.318907   0.000000
 
  0.0000000E+00 -0.4112020E-02 -0.4112020E-02  0.5882353E-02
    1       -6.423561   1.000000
    2        5.181515   1.000000
    3        5.182325   1.000000
    4        5.485547   0.999999
    5        8.006158   0.000000
    6        8.021276   0.000000
    7        8.022202   0.000000
    8        8.529698   0.000000
    9       13.193472   0.000000
   10       13.196101   0.000000
   11       13.592313   0.000000
   12       16.685009   0.000000
   13       16.840206   0.000000
   14       16.840996   0.000000
   15       21.296538   0.000000
   16       28.190541   0.000000
   17       28.268129   0.000000
   18       28.271954   0.000000
   19       29.326348   0.000000
   20       29.327212   0.000000
 
  0.0000000E+00  0.4112020E-02  0.4112020E-02  0.5882353E-02
    1       -6.423561   1.000000
    2        5.181515   1.000000
    3        5.182325   1.000000
    4        5.485547   0.999999
    5        8.006158   0.000000
    6        8.021276   0.000000
    7        8.022202   0.000000
    8        8.529698   0.000000
    9       13.193472   0.000000
   10       13.196101   0.000000
   11       13.592313   0.000000
   12       16.685009   0.000000
   13       16.840206   0.000000
   14       16.840996   0.000000
   15       21.296538   0.000000
   16       28.190541   0.000000
   17       28.268128   0.000000
   18       28.271955   0.000000
   19       29.326168   0.000000
   20       29.327026   0.000000
 
  0.0000000E+00  0.8224040E-02  0.8224040E-02  0.5882353E-02
    1       -6.422701   1.000000
    2        5.175811   1.000000
    3        5.179043   1.000000
    4        5.481527   0.999999
    5        8.006134   0.000000
    6        8.023669   0.000000
    7        8.026554   0.000000
    8        8.535991   0.000000
    9       13.186575   0.000000
   10       13.197067   0.000000
   11       13.596064   0.000000
   12       16.687868   0.000000
   13       16.841716   0.000000
   14       16.844894   0.000000
   15       21.302373   0.000000
   16       28.180290   0.000000
   17       28.252831   0.000000
   18       28.268863   0.000000
   19       29.315338   0.000000
   20       29.318837   0.000000
 
  0.0000000E+00  0.1233606E-01  0.1233606E-01  0.5882353E-02
    1       -6.421264   1.000000
    2        5.166347   1.000000
    3        5.173597   1.000000
    4        5.474870   0.999999
    5        8.004402   0.000000
    6        8.029345   0.000000
    7        8.033783   0.000000
    8        8.546413   0.000000
    9       13.175155   0.000000
   10       13.198677   0.000000
   11       13.602310   0.000000
   12       16.692526   0.000000
   13       16.844237   0.000000
   14       16.851442   0.000000
   15       21.312092   0.000000
   16       28.161389   0.000000
   17       28.227706   0.000000
   18       28.265843   0.000000
   19       29.297336   0.000000
   20       29.305256   0.000000
 
  0.0000000E+00  0.1644808E-01  0.1644808E-01  0.5882353E-02
    1       -6.419246   1.000000
    2        5.153186   1.000000
    3        5.166028   1.000000
    4        5.465632   1.000000
    5        8.000626   0.000000
    6        8.038625   0.000000
    7        8.043857   0.000000
    8        8.560870   0.000000
    9       13.159305   0.000000
   10       13.200933   0.000000
   11       13.611044   0.000000
   12       16.698832   0.000000
   13       16.847768   0.000000
   14       16.860703   0.000000
   15       21.325689   0.000000
   16       28.132890   0.000000
   17       28.193300   0.000000
   18       28.264323   0.000000
   19       29.272246   0.000000
   20       29.286535   0.000000
 
  0.0000000E+00  0.2056010E-01  0.2056010E-01  0.5882353E-02
    1       -6.416660   1.000000
    2        5.136396   1.000000
    3        5.156370   1.000000
    4        5.453883   1.000000
    5        7.995094   0.000000
    6        8.051185   0.000000
    7        8.056724   0.000000
    8        8.579198   0.000000
    9       13.139175   0.000000
   10       13.203832   0.000000
   11       13.622242   0.000000
   12       16.706586   0.000000
   13       16.852296   0.000000
   14       16.872738   0.000000
   15       21.343145   0.000000
   16       28.094806   0.000000
   17       28.150092   0.000000
   18       28.264673   0.000000
   19       29.240227   0.000000
   20       29.262555   0.000000
 
  0.0000000E+00  0.2467212E-01  0.2467212E-01  0.5882353E-02
    1       -6.413493   1.000000
    2        5.116095   1.000000
    3        5.144694   1.000000
    4        5.439729   1.000000
    5        7.988049   0.000000
    6        8.066772   0.000000
    7        8.072329   0.000000
    8        8.601261   0.000000
    9       13.114945   0.000000
   10       13.207373   0.000000
   11       13.635900   0.000000
   12       16.715600   0.000000
   13       16.857832   0.000000
   14       16.887600   0.000000
   15       21.364448   0.000000
   16       28.048056   0.000000
   17       28.098901   0.000000
   18       28.266769   0.000000
   19       29.201512   0.000000
   20       29.234129   0.000000
 
 -0.2467212E-01  0.0000000E+00 -0.2467212E-01  0.5882353E-02
    1       -6.413493   1.000000
    2        5.116095   1.000000
    3        5.144694   1.000000
    4        5.439729   1.000000
    5        7.988049   0.000000
    6        8.066772   0.000000
    7        8.072329   0.000000
    8        8.601261   0.000000
    9       13.114945   0.000000
   10       13.207373   0.000000
   11       13.635900   0.000000
   12       16.715600   0.000000
   13       16.857832   0.000000
   14       16.887600   0.000000
   15       21.364448   0.000000
   16       28.048056   0.000000
   17       28.098902   0.000000
   18       28.266769   0.000000
   19       29.201505   0.000000
   20       29.234167   0.000000
 
 -0.2056010E-01  0.0000000E+00 -0.2056010E-01  0.5882353E-02
    1       -6.416660   1.000000
    2        5.136396   1.000000
    3        5.156370   1.000000
    4        5.453883   1.000000
    5        7.995094   0.000000
    6        8.051185   0.000000
    7        8.056724   0.000000
    8        8.579198   0.000000
    9       13.139175   0.000000
   10       13.203832   0.000000
   11       13.622242   0.000000
   12       16.706586   0.000000
   13       16.852296   0.000000
   14       16.872738   0.000000
   15       21.343145   0.000000
   16       28.094805   0.000000
   17       28.150094   0.000000
   18       28.264675   0.000000
   19       29.240232   0.000000
   20       29.262550   0.000000
 
 -0.1644808E-01  0.0000000E+00 -0.1644808E-01  0.5882353E-02
    1       -6.419246   1.000000
    2        5.153186   1.000000
    3        5.166028   1.000000
    4        5.465632   1.000000
    5        8.000626   0.000000
    6        8.038625   0.000000
    7        8.043857   0.000000
    8        8.560870   0.000000
    9       13.159305   0.000000
   10       13.200933   0.000000
   11       13.611044   0.000000
   12       16.698832   0.000000
   13       16.847768   0.000000
   14       16.860703   0.000000
   15       21.325689   0.000000
   16       28.132890   0.000000
   17       28.193300   0.000000
   18       28.264323   0.000000
   19       29.272219   0.000000
   20       29.286365   0.000000
 
 -0.1233606E-01  0.0000000E+00 -0.1233606E-01  0.5882353E-02
    1       -6.421264   1.000000
    2        5.166347   1.000000
    3        5.173597   1.000000
    4        5.474870   0.999999
    5        8.004402   0.000000
    6        8.029345   0.000000
    7        8.033783   0.000000
    8        8.546413   0.000000
    9       13.175155   0.000000
   10       13.198677   0.000000
   11       13.602310   0.000000
   12       16.692526   0.000000
   13       16.844237   0.000000
   14       16.851442   0.000000
   15       21.312092   0.000000
   16       28.161389   0.000000
   17       28.227703   0.000000
   18       28.265842   0.000000
   19       29.297267   0.000000
   20       29.305131   0.000000
 
 -0.8224040E-02  0.0000000E+00 -0.8224040E-02  0.5882353E-02
    1       -6.422701   1.000000
    2        5.175811   1.000000
    3        5.179043   1.000000
    4        5.481527   0.999999
    5        8.006134   0.000000
    6        8.023669   0.000000
    7        8.026554   0.000000
    8        8.535991   0.000000
    9       13.186575   0.000000
   10       13.197067   0.000000
   11       13.596064   0.000000
   12       16.687868   0.000000
   13       16.841716   0.000000
   14       16.844894   0.000000
   15       21.302373   0.000000
   16       28.180290   0.000000
   17       28.252831   0.000000
   18       28.268863   0.000000
   19       29.315330   0.000000
   20       29.318778   0.000000
 
 -0.4112020E-02  0.0000000E+00 -0.4112020E-02  0.5882353E-02
    1       -6.423561   1.000000
    2        5.181515   1.000000
    3        5.182325   1.000000
    4        5.485547   0.999999
    5        8.006158   0.000000
    6        8.021276   0.000000
    7        8.022202   0.000000
    8        8.529698   0.000000
    9       13.193472   0.000000
   10       13.196101   0.000000
   11       13.592313   0.000000
   12       16.685009   0.000000
   13       16.840206   0.000000
   14       16.840996   0.000000
   15       21.296538   0.000000
   16       28.190541   0.000000
   17       28.268128   0.000000
   18       28.271955   0.000000
   19       29.326241   0.000000
   20       29.327079   0.000000
 
  0.4112020E-02  0.0000000E+00  0.4112020E-02  0.5882353E-02
    1       -6.423561   1.000000
    2        5.181515   1.000000
    3        5.182325   1.000000
    4        5.485547   0.999999
    5        8.006158   0.000000
    6        8.021276   0.000000
    7        8.022202   0.000000
    8        8.529698   0.000000
    9       13.193472   0.000000
   10       13.196101   0.000000
   11       13.592313   0.000000
   12       16.685009   0.000000
   13       16.840206   0.000000
   14       16.840996   0.000000
   15       21.296538   0.000000
   16       28.190541   0.000000
   17       28.268128   0.000000
   18       28.271954   0.000000
   19       29.326196   0.000000
   20       29.327097   0.000000
 
  0.8224040E-02  0.0000000E+00  0.8224040E-02  0.5882353E-02
    1       -6.422701   1.000000
    2        5.175811   1.000000
    3        5.179043   1.000000
    4        5.481527   0.999999
    5        8.006134   0.000000
    6        8.023669   0.000000
    7        8.026554   0.000000
    8        8.535991   0.000000
    9       13.186575   0.000000
   10       13.197067   0.000000
   11       13.596064   0.000000
   12       16.687868   0.000000
   13       16.841716   0.000000
   14       16.844894   0.000000
   15       21.302373   0.000000
   16       28.180290   0.000000
   17       28.252831   0.000000
   18       28.268863   0.000000
   19       29.315332   0.000000
   20       29.318952   0.000000
 
  0.1233606E-01  0.0000000E+00  0.1233606E-01  0.5882353E-02
    1       -6.421264   1.000000
    2        5.166347   1.000000
    3        5.173597   1.000000
    4        5.474870   0.999999
    5        8.004402   0.000000
    6        8.029345   0.000000
    7        8.033783   0.000000
    8        8.546413   0.000000
    9       13.175155   0.000000
   10       13.198677   0.000000
   11       13.602310   0.000000
   12       16.692526   0.000000
   13       16.844237   0.000000
   14       16.851442   0.000000
   15       21.312092   0.000000
   16       28.161389   0.000000
   17       28.227703   0.000000
   18       28.265842   0.000000
   19       29.297300   0.000000
   20       29.305157   0.000000
 
  0.1644808E-01  0.0000000E+00  0.1644808E-01  0.5882353E-02
    1       -6.419246   1.000000
    2        5.153186   1.000000
    3        5.166028   1.000000
    4        5.465632   1.000000
    5        8.000626   0.000000
    6        8.038625   0.000000
    7        8.043857   0.000000
    8        8.560870   0.000000
    9       13.159305   0.000000
   10       13.200933   0.000000
   11       13.611044   0.000000
   12       16.698832   0.000000
   13       16.847768   0.000000
   14       16.860703   0.000000
   15       21.325689   0.000000
   16       28.132890   0.000000
   17       28.193300   0.000000
   18       28.264323   0.000000
   19       29.272288   0.000000
   20       29.286326   0.000000
 
  0.2056010E-01  0.0000000E+00  0.2056010E-01  0.5882353E-02
    1       -6.416660   1.000000
    2        5.136396   1.000000
    3        5.156370   1.000000
    4        5.453883   1.000000
    5        7.995094   0.000000
    6        8.051185   0.000000
    7        8.056724   0.000000
    8        8.579198   0.000000
    9       13.139175   0.000000
   10       13.203832   0.000000
   11       13.622242   0.000000
   12       16.706586   0.000000
   13       16.852296   0.000000
   14       16.872738   0.000000
   15       21.343145   0.000000
   16       28.094805   0.000000
   17       28.150092   0.000000
   18       28.264673   0.000000
   19       29.240215   0.000000
   20       29.262529   0.000000
 
  0.2467212E-01  0.0000000E+00  0.2467212E-01  0.5882353E-02
    1       -6.413493   1.000000
    2        5.116095   1.000000
    3        5.144694   1.000000
    4        5.439729   1.000000
    5        7.988049   0.000000
    6        8.066772   0.000000
    7        8.072329   0.000000
    8        8.601261   0.000000
    9       13.114945   0.000000
   10       13.207373   0.000000
   11       13.635900   0.000000
   12       16.715600   0.000000
   13       16.857832   0.000000
   14       16.887600   0.000000
   15       21.364448   0.000000
   16       28.048056   0.000000
   17       28.098902   0.000000
   18       28.266770   0.000000
   19       29.201521   0.000000
   20       29.234150   0.000000
 
 -0.2467212E-01 -0.2467212E-01  0.0000000E+00  0.5882353E-02
    1       -6.413493   1.000000
    2        5.116095   1.000000
    3        5.144694   1.000000
    4        5.439729   1.000000
    5        7.988049   0.000000
    6        8.066772   0.000000
    7        8.072329   0.000000
    8        8.601261   0.000000
    9       13.114945   0.000000
   10       13.207373   0.000000
   11       13.635900   0.000000
   12       16.715600   0.000000
   13       16.857832   0.000000
   14       16.887600   0.000000
   15       21.364448   0.000000
   16       28.048056   0.000000
   17       28.098902   0.000000
   18       28.266769   0.000000
   19       29.201509   0.000000
   20       29.234133   0.000000
 
 -0.2056010E-01 -0.2056010E-01  0.0000000E+00  0.5882353E-02
    1       -6.416660   1.000000
    2        5.136396   1.000000
    3        5.156370   1.000000
    4        5.453883   1.000000
    5        7.995094   0.000000
    6        8.051185   0.000000
    7        8.056724   0.000000
    8        8.579198   0.000000
    9       13.139175   0.000000
   10       13.203832   0.000000
   11       13.622242   0.000000
   12       16.706586   0.000000
   13       16.852296   0.000000
   14       16.872738   0.000000
   15       21.343145   0.000000
   16       28.094806   0.000000
   17       28.150092   0.000000
   18       28.264673   0.000000
   19       29.240227   0.000000
   20       29.262533   0.000000
 
 -0.1644808E-01 -0.1644808E-01  0.0000000E+00  0.5882353E-02
    1       -6.419246   1.000000
    2        5.153186   1.000000
    3        5.166028   1.000000
    4        5.465632   1.000000
    5        8.000626   0.000000
    6        8.038625   0.000000
    7        8.043857   0.000000
    8        8.560870   0.000000
    9       13.159305   0.000000
   10       13.200933   0.000000
   11       13.611044   0.000000
   12       16.698832   0.000000
   13       16.847768   0.000000
   14       16.860703   0.000000
   15       21.325689   0.000000
   16       28.132890   0.000000
   17       28.193300   0.000000
   18       28.264324   0.000000
   19       29.272322   0.000000
   20       29.286389   0.000000
 
 -0.1233606E-01 -0.1233606E-01  0.0000000E+00  0.5882353E-02
    1       -6.421264   1.000000
    2        5.166347   1.000000
    3        5.173597   1.000000
    4        5.474870   0.999999
    5        8.004402   0.000000
    6        8.029345   0.000000
    7        8.033783   0.000000
    8        8.546413   0.000000
    9       13.175155   0.000000
   10       13.198677   0.000000
   11       13.602310   0.000000
   12       16.692526   0.000000
   13       16.844237   0.000000
   14       16.851442   0.000000
   15       21.312092   0.000000
   16       28.161389   0.000000
   17       28.227703   0.000000
   18       28.265842   0.000000
   19       29.297337   0.000000
   20       29.305199   0.000000
 
 -0.8224040E-02 -0.8224040E-02  0.0000000E+00  0.5882353E-02
    1       -6.422701   1.000000
    2        5.175811   1.000000
    3        5.179043   1.000000
    4        5.481527   0.999999
    5        8.006134   0.000000
    6        8.023669   0.000000
    7        8.026554   0.000000
    8        8.535991   0.000000
    9       13.186575   0.000000
   10       13.197067   0.000000
   11       13.596064   0.000000
   12       16.687868   0.000000
   13       16.841716   0.000000
   14       16.844894   0.000000
   15       21.302373   0.000000
   16       28.180290   0.000000
   17       28.252831   0.000000
   18       28.268863   0.000000
   19       29.315313   0.000000
   20       29.318755   0.000000
 
 -0.4112020E-02 -0.4112020E-02  0.0000000E+00  0.5882353E-02
    1       -6.423561   1.000000
    2        5.181515   1.000000
    3        5.182325   1.000000
    4        5.485547   0.999999
    5        8.006158   0.000000
    6        8.021276   0.000000
    7        8.022202   0.000000
    8        8.529698   0.000000
    9       13.193472   0.000000
   10       13.196101   0.000000
   11       13.592313   0.000000
   12       16.685009   0.000000
   13       16.840206   0.000000
   14       16.840996   0.000000
   15       21.296538   0.000000
   16       28.190541   0.000000
   17       28.268128   0.000000
   18       28.271954   0.000000
   19       29.326200   0.000000
   20       29.327047   0.000000
 
  0.4112020E-02  0.4112020E-02  0.0000000E+00  0.5882353E-02
    1       -6.423561   1.000000
    2        5.181515   1.000000
    3        5.182325   1.000000
    4        5.485547   0.999999
    5        8.006158   0.000000
    6        8.021276   0.000000
    7        8.022202   0.000000
    8        8.529698   0.000000
    9       13.193472   0.000000
   10       13.196101   0.000000
   11       13.592313   0.000000
   12       16.685009   0.000000
   13       16.840206   0.000000
   14       16.840996   0.000000
   15       21.296538   0.000000
   16       28.190541   0.000000
   17       28.268129   0.000000
   18       28.271954   0.000000
   19       29.326298   0.000000
   20       29.327056   0.000000
 
  0.8224040E-02  0.8224040E-02  0.0000000E+00  0.5882353E-02
    1       -6.422701   1.000000
    2        5.175811   1.000000
    3        5.179043   1.000000
    4        5.481527   0.999999
    5        8.006134   0.000000
    6        8.023669   0.000000
    7        8.026554   0.000000
    8        8.535991   0.000000
    9       13.186575   0.000000
   10       13.197067   0.000000
   11       13.596064   0.000000
   12       16.687868   0.000000
   13       16.841716   0.000000
   14       16.844894   0.000000
   15       21.302373   0.000000
   16       28.180290   0.000000
   17       28.252831   0.000000
   18       28.268863   0.000000
   19       29.315359   0.000000
   20       29.319058   0.000000
 
  0.1233606E-01  0.1233606E-01  0.0000000E+00  0.5882353E-02
    1       -6.421264   1.000000
    2        5.166347   1.000000
    3        5.173597   1.000000
    4        5.474870   0.999999
    5        8.004402   0.000000
    6        8.029345   0.000000
    7        8.033783   0.000000
    8        8.546413   0.000000
    9       13.175155   0.000000
   10       13.198677   0.000000
   11       13.602310   0.000000
   12       16.692526   0.000000
   13       16.844237   0.000000
   14       16.851442   0.000000
   15       21.312092   0.000000
   16       28.161389   0.000000
   17       28.227705   0.000000
   18       28.265842   0.000000
   19       29.297312   0.000000
   20       29.305142   0.000000
 
  0.1644808E-01  0.1644808E-01  0.0000000E+00  0.5882353E-02
    1       -6.419246   1.000000
    2        5.153186   1.000000
    3        5.166028   1.000000
    4        5.465632   1.000000
    5        8.000626   0.000000
    6        8.038625   0.000000
    7        8.043857   0.000000
    8        8.560870   0.000000
    9       13.159305   0.000000
   10       13.200933   0.000000
   11       13.611044   0.000000
   12       16.698832   0.000000
   13       16.847768   0.000000
   14       16.860703   0.000000
   15       21.325689   0.000000
   16       28.132890   0.000000
   17       28.193300   0.000000
   18       28.264324   0.000000
   19       29.272232   0.000000
   20       29.286334   0.000000
 
  0.2056010E-01  0.2056010E-01  0.0000000E+00  0.5882353E-02
    1       -6.416660   1.000000
    2        5.136396   1.000000
    3        5.156370   1.000000
    4        5.453883   1.000000
    5        7.995094   0.000000
    6        8.051185   0.000000
    7        8.056724   0.000000
    8        8.579198   0.000000
    9       13.139175   0.000000
   10       13.203832   0.000000
   11       13.622242   0.000000
   12       16.706586   0.000000
   13       16.852296   0.000000
   14       16.872738   0.000000
   15       21.343145   0.000000
   16       28.094805   0.000000
   17       28.150092   0.000000
   18       28.264673   0.000000
   19       29.240199   0.000000
   20       29.262527   0.000000
 
  0.2467212E-01  0.2467212E-01  0.0000000E+00  0.5882353E-02
    1       -6.413493   1.000000
    2        5.116095   1.000000
    3        5.144694   1.000000
    4        5.439729   1.000000
    5        7.988049   0.000000
    6        8.066772   0.000000
    7        8.072329   0.000000
    8        8.601261   0.000000
    9       13.114945   0.000000
   10       13.207373   0.000000
   11       13.635900   0.000000
   12       16.715600   0.000000
   13       16.857832   0.000000
   14       16.887600   0.000000
   15       21.364448   0.000000
   16       28.048057   0.000000
   17       28.098902   0.000000
   18       28.266769   0.000000
   19       29.201545   0.000000
   20       29.234132   0.000000
 
 -0.2467212E-01 -0.2467212E-01 -0.4934425E-01  0.5882353E-02
    1       -6.403348   1.000000
    2        5.047812   1.000000
    3        5.174254   1.000000
    4        5.334358   1.000000
    5        8.033441   0.000000
    6        8.042153   0.000000
    7        8.080954   0.000000
    8        8.715249   0.000000
    9       13.086313   0.000000
   10       13.175356   0.000000
   11       13.676669   0.000000
   12       16.679886   0.000000
   13       16.859126   0.000000
   14       17.019809   0.000000
   15       21.430123   0.000000
   16       27.904232   0.000000
   17       28.034916   0.000000
   18       28.159566   0.000000
   19       29.126012   0.000000
   20       29.141818   0.000000
 
 -0.2056010E-01 -0.2056010E-01 -0.4112020E-01  0.5882353E-02
    1       -6.409609   1.000000
    2        5.090365   1.000000
    3        5.177075   1.000000
    4        5.376369   1.000000
    5        8.024591   0.000000
    6        8.035614   0.000000
    7        8.066060   0.000000
    8        8.658338   0.000000
    9       13.118492   0.000000
   10       13.181408   0.000000
   11       13.650734   0.000000
   12       16.681847   0.000000
   13       16.852040   0.000000
   14       16.966048   0.000000
   15       21.389209   0.000000
   16       28.001662   0.000000
   17       28.096424   0.000000
   18       28.193676   0.000000
   19       29.184020   0.000000
   20       29.186232   0.000000
 
 -0.1644808E-01 -0.1644808E-01 -0.3289616E-01  0.5882353E-02
    1       -6.414736   1.000000
    2        5.124526   1.000000
    3        5.179369   1.000000
    4        5.413546   1.000000
    5        8.017274   0.000000
    6        8.030263   0.000000
    7        8.052233   0.000000
    8        8.611325   0.000000
    9       13.145620   0.000000
   10       13.186481   0.000000
   11       13.629370   0.000000
   12       16.683052   0.000000
   13       16.846932   0.000000
   14       16.921252   0.000000
   15       21.355412   0.000000
   16       28.076819   0.000000
   17       28.153168   0.000000
   18       28.221967   0.000000
   19       29.229671   0.000000
   20       29.233978   0.000000
 
 -0.1233606E-01 -0.1233606E-01 -0.2467212E-01  0.5882353E-02
    1       -6.418723   1.000000
    2        5.150602   1.000000
    3        5.181146   1.000000
    4        5.444422   1.000000
    5        8.011734   0.000000
    6        8.026101   0.000000
    7        8.039980   0.000000
    8        8.574642   0.000000
    9       13.167257   0.000000
   10       13.190509   0.000000
   11       13.612663   0.000000
   12       16.683686   0.000000
   13       16.843456   0.000000
   14       16.885888   0.000000
   15       21.328921   0.000000
   16       28.130531   0.000000
   17       28.202915   0.000000
   18       28.244244   0.000000
   19       29.269251   0.000000
   20       29.274728   0.000000
 
 -0.8224040E-02 -0.8224040E-02 -0.1644808E-01  0.5882353E-02
    1       -6.421574   1.000000
    2        5.168934   1.000000
    3        5.182411   1.000000