 vasp.5.4.4.18Apr17-6-g9f103f2a35 (build Aug 31 2019 16:21:40) complex          
  
 executed on             LinuxIFC date 2021.05.16  23:16:55
 running on   16 total cores
 distrk:  each k-point on   16 cores,    1 groups
 distr:  one band on NCORES_PER_BAND=  16 cores,    1 groups


--------------------------------------------------------------------------------------------------------


 INCAR:
 POTCAR:    PAW_PBE Si 05Jan2001                  

 ----------------------------------------------------------------------------- 
|                                                                             |
|           W    W    AA    RRRRR   N    N  II  N    N   GGGG   !!!           |
|           W    W   A  A   R    R  NN   N  II  NN   N  G    G  !!!           |
|           W    W  A    A  R    R  N N  N  II  N N  N  G       !!!           |
|           W WW W  AAAAAA  RRRRR   N  N N  II  N  N N  G  GGG   !            |
|           WW  WW  A    A  R   R   N   NN  II  N   NN  G    G                |
|           W    W  A    A  R    R  N    N  II  N    N   GGGG   !!!           |
|                                                                             |
|      For optimal performance we recommend to set                            |
|        NCORE= 4 - approx SQRT( number of cores)                             |
|      NCORE specifies how many cores store one orbital (NPAR=cpu/NCORE).     |
|      This setting can  greatly improve the performance of VASP for DFT.     |
|      The default,   NCORE=1            might be grossly inefficient         |
|      on modern multi-core architectures or massively parallel machines.     |
|      Do your own testing !!!!                                               |
|      Unfortunately you need to use the default for GW and RPA calculations. |
|      (for HF NCORE is supported but not extensively tested yet)             |
|                                                                             |
 ----------------------------------------------------------------------------- 

 POTCAR:    PAW_PBE Si 05Jan2001                  
   VRHFIN =Si: s2p2                                                             
   LEXCH  = PE                                                                  
   EATOM  =   103.0669 eV,    7.5752 Ry                                         
                                                                                
   TITEL  = PAW_PBE Si 05Jan2001                                                
   LULTRA =        F    use ultrasoft PP ?                                      
   IUNSCR =        1    unscreen: 0-lin 1-nonlin 2-no                           
   RPACOR =    1.500    partial core radius                                     
   POMASS =   28.085; ZVAL   =    4.000    mass and valenz                      
   RCORE  =    1.900    outmost cutoff radius                                   
   RWIGS  =    2.480; RWIGS  =    1.312    wigner-seitz radius (au A)           
   ENMAX  =  245.345; ENMIN  =  184.009 eV                                      
   ICORE  =        2    local potential                                         
   LCOR   =        T    correct aug charges                                     
   LPAW   =        T    paw PP                                                  
   EAUG   =  322.069                                                            
   DEXC   =    0.000                                                            
   RMAX   =    1.950    core radius for proj-oper                               
   RAUG   =    1.300    factor for augmentation sphere                          
   RDEP   =    1.993    radius for radial grids                                 
   RDEPT  =    1.837    core radius for aug-charge                              
                                                                                
   Atomic configuration                                                         
    6 entries                                                                   
     n  l   j            E        occ.                                          
     1  0  0.50     -1785.8828   2.0000                                         
     2  0  0.50      -139.4969   2.0000                                         
     2  1  1.50       -95.5546   6.0000                                         
     3  0  0.50       -10.8127   2.0000                                         
     3  1  0.50        -4.0811   2.0000                                         
     3  2  1.50        -4.0817   0.0000                                         
   Description                                                                  
     l       E           TYP  RCUT    TYP  RCUT                                 
     0    -10.8127223     23  1.900                                             
     0     -7.6451159     23  1.900                                             
     1     -4.0811372     23  1.900                                             
     1      2.4879257     23  1.900                                             
     2     -4.0817478      7  1.900                                             
  local pseudopotential read in
  partial core-charges read in
  partial kinetic energy density read in
  atomic valenz-charges read in
  non local Contribution for L=           0  read in
    real space projection operators read in
  non local Contribution for L=           0  read in
    real space projection operators read in
  non local Contribution for L=           1  read in
    real space projection operators read in
  non local Contribution for L=           1  read in
    real space projection operators read in
    PAW grid and wavefunctions read in
 
   number of l-projection  operators is LMAX  =           4
   number of lm-projection operators is LMMAX =           8
 
  PAW_PBE Si 05Jan2001                  :
 energy of atom  1       EATOM= -103.0669
 kinetic energy error for atom=    0.0006 (will be added to EATOM!!)
 
 
 POSCAR: Si                                      
  positions in direct lattice
  No initial velocities read in
 exchange correlation table for  LEXCH =        8
   RHO(1)=    0.500       N(1)  =     2000
   RHO(2)=  100.500       N(2)  =     4000

 VTST: version 3.2, (02/03/18)

 CHAIN: initializing optimizer
 
 OPT: Using VASP Dynamics algorithm
 CHAIN: Read ICHAIN            0
 
 POSCAR: Si                                      
  positions in direct lattice
  No initial velocities read in
 


--------------------------------------------------------------------------------------------------------


 ion  position               nearest neighbor table
   1  0.125  0.125  0.125-   2 2.37   2 2.37   2 2.37   2 2.37
   2  0.875  0.875  0.875-   1 2.37   1 2.37   1 2.37   1 2.37
 
  LATTYP: Found a face centered cubic cell.
 ALAT       =     5.4688531200
  
  Lattice vectors:
  
 A1 = (   0.0000000000,   2.7344265600,   2.7344265600)
 A2 = (   2.7344265600,   0.0000000000,   2.7344265600)
 A3 = (   2.7344265600,   2.7344265600,   0.0000000000)


Analysis of symmetry for initial positions (statically):
=====================================================================
 Subroutine PRICEL returns:
 Original cell was already a primitive cell.
 

 Routine SETGRP: Setting up the symmetry group for a 
 face centered cubic supercell.


 Subroutine GETGRP returns: Found 48 space group operations
 (whereof 12 operations were pure point group operations)
 out of a pool of 48 trial point group operations.


The static configuration has the point symmetry D_3d.
 The point group associated with its full space group is O_h .


Analysis of symmetry for dynamics (positions and initial velocities):
=====================================================================
 Subroutine PRICEL returns:
 Original cell was already a primitive cell.
 

 Routine SETGRP: Setting up the symmetry group for a 
 face centered cubic supercell.


 Subroutine GETGRP returns: Found 48 space group operations
 (whereof 12 operations were pure point group operations)
 out of a pool of 48 trial point group operations.


The dynamic configuration has the point symmetry D_3d.
 The point group associated with its full space group is O_h .


 Subroutine INISYM returns: Found 48 space group operations
 (whereof 12 operations are pure point group operations),
 and found     1 'primitive' translations

 
 
 KPOINTS: K-line around a specific k point        
  k-points in reciprocal lattice
Space group operators:
 irot       det(A)        alpha          n_x          n_y          n_z        tau_x        tau_y        tau_z
    1     1.000000     0.000000     1.000000     0.000000     0.000000     0.000000     0.000000     0.000000
    2    -1.000000     0.000000     1.000000     0.000000     0.000000     0.000000     0.000000     0.000000
    3     1.000000   120.000000    -0.577350    -0.577350    -0.577350     0.000000     0.000000     0.000000
    4    -1.000000   120.000000    -0.577350    -0.577350    -0.577350     0.000000     0.000000     0.000000
    5     1.000000   120.000000     0.577350     0.577350     0.577350     0.000000     0.000000     0.000000
    6    -1.000000   120.000000     0.577350     0.577350     0.577350     0.000000     0.000000     0.000000
    7     1.000000   180.000000    -0.000000    -0.707107     0.707107     0.000000     0.000000     0.000000
    8    -1.000000   180.000000    -0.000000    -0.707107     0.707107     0.000000     0.000000     0.000000
    9     1.000000   180.000000     0.707107    -0.707107     0.000000     0.000000     0.000000     0.000000
   10    -1.000000   180.000000     0.707107    -0.707107     0.000000     0.000000     0.000000     0.000000
   11     1.000000   180.000000     0.707107     0.000000    -0.707107     0.000000     0.000000     0.000000
   12    -1.000000   180.000000     0.707107     0.000000    -0.707107     0.000000     0.000000     0.000000
   13     1.000000    90.000000    -0.000000    -0.000000    -1.000000     0.500000     0.000000    -0.000000
   14    -1.000000    90.000000    -0.000000    -0.000000    -1.000000     0.500000     0.000000    -0.000000
   15     1.000000   180.000000     0.000000     0.707107     0.707107     0.500000     0.000000    -0.000000
   16    -1.000000   180.000000     0.000000     0.707107     0.707107     0.500000     0.000000    -0.000000
   17     1.000000    90.000000    -0.000000     1.000000    -0.000000     0.500000     0.000000    -0.000000
   18    -1.000000    90.000000    -0.000000     1.000000    -0.000000     0.500000     0.000000    -0.000000
   19     1.000000   180.000000    -0.000000     0.000000     1.000000    -0.000000     0.000000     0.500000
   20    -1.000000   180.000000    -0.000000     0.000000     1.000000    -0.000000     0.000000     0.500000
   21     1.000000   120.000000    -0.577350     0.577350     0.577350    -0.000000     0.000000     0.500000
   22    -1.000000   120.000000    -0.577350     0.577350     0.577350    -0.000000     0.000000     0.500000
   23     1.000000   120.000000    -0.577350     0.577350    -0.577350    -0.000000     0.000000     0.500000
   24    -1.000000   120.000000    -0.577350     0.577350    -0.577350    -0.000000     0.000000     0.500000
   25     1.000000    90.000000     0.000000     0.000000     1.000000     0.000000     0.500000    -0.000000
   26    -1.000000    90.000000     0.000000     0.000000     1.000000     0.000000     0.500000    -0.000000
   27     1.000000    90.000000    -1.000000     0.000000     0.000000     0.000000     0.500000    -0.000000
   28    -1.000000    90.000000    -1.000000     0.000000     0.000000     0.000000     0.500000    -0.000000
   29     1.000000   180.000000     0.707107     0.000000     0.707107     0.000000     0.500000    -0.000000
   30    -1.000000   180.000000     0.707107     0.000000     0.707107     0.000000     0.500000    -0.000000
   31     1.000000   120.000000     0.577350    -0.577350     0.577350     0.500000     0.000000    -0.000000
   32    -1.000000   120.000000     0.577350    -0.577350     0.577350     0.500000     0.000000    -0.000000
   33     1.000000   120.000000    -0.577350    -0.577350     0.577350     0.500000     0.000000    -0.000000
   34    -1.000000   120.000000    -0.577350    -0.577350     0.577350     0.500000     0.000000    -0.000000
   35     1.000000   180.000000     1.000000     0.000000     0.000000     0.500000     0.000000    -0.000000
   36    -1.000000   180.000000     1.000000     0.000000     0.000000     0.500000     0.000000    -0.000000
   37     1.000000    90.000000     0.000000    -1.000000     0.000000    -0.000000     0.000000     0.500000
   38    -1.000000    90.000000     0.000000    -1.000000     0.000000    -0.000000     0.000000     0.500000
   39     1.000000   180.000000     0.707107     0.707107    -0.000000    -0.000000     0.000000     0.500000
   40    -1.000000   180.000000     0.707107     0.707107    -0.000000    -0.000000     0.000000     0.500000
   41     1.000000    90.000000     1.000000     0.000000     0.000000    -0.000000     0.000000     0.500000
   42    -1.000000    90.000000     1.000000     0.000000     0.000000    -0.000000     0.000000     0.500000
   43     1.000000   120.000000     0.577350    -0.577350    -0.577350     0.000000     0.500000    -0.000000
   44    -1.000000   120.000000     0.577350    -0.577350    -0.577350     0.000000     0.500000    -0.000000
   45     1.000000   180.000000    -0.000000     1.000000     0.000000     0.000000     0.500000    -0.000000
   46    -1.000000   180.000000    -0.000000     1.000000     0.000000     0.000000     0.500000    -0.000000
   47     1.000000   120.000000     0.577350     0.577350    -0.577350     0.000000     0.500000    -0.000000
   48    -1.000000   120.000000     0.577350     0.577350    -0.577350     0.000000     0.500000    -0.000000


--------------------------------------------------------------------------------------------------------




 Dimension of arrays:
   k-points           NKPTS =    170   k-points in BZ     NKDIM =    170   number of bands    NBANDS=     20
   number of dos      NEDOS =    301   number of ions     NIONS =      2
   non local maximal  LDIM  =      4   non local SUM 2l+1 LMDIM =      8
   total plane-waves  NPLWV =  21952
   max r-space proj   IRMAX =      1   max aug-charges    IRDMAX=   2959
   dimension x,y,z NGX =    28 NGY =   28 NGZ =   28
   dimension x,y,z NGXF=    30 NGYF=   30 NGZF=   30
   support grid    NGXF=    30 NGYF=   30 NGZF=   30
   ions per type =               2
   NGX,Y,Z   is equivalent  to a cutoff of  12.04, 12.04, 12.04 a.u.
   NGXF,Y,Z  is equivalent  to a cutoff of  12.90, 12.90, 12.90 a.u.

 SYSTEM =  bulk	                                   
 POSCAR =  Si                                      

 Startparameter for this run:
   NWRITE =      2    write-flag & timer
   PREC   = high      normal or accurate (medium, high low for compatibility)
   ISTART =      0    job   : 0-new  1-cont  2-samecut
   ICHARG =     11    charge: 1-file 2-atom 10-const
   ISPIN  =      1    spin polarized calculation?
   LNONCOLLINEAR =      F non collinear calculations
   LSORBIT =      F    spin-orbit coupling
   INIWAV =      1    electr: 0-lowe 1-rand  2-diag
   LASPH  =      F    aspherical Exc in radial PAW
   METAGGA=      F    non-selfconsistent MetaGGA calc.

 Electronic Relaxation 1
   ENCUT  =  500.0 eV  36.75 Ry    6.06 a.u.   7.05  7.05  7.05*2*pi/ulx,y,z
   ENINI  =  500.0     initial cutoff
   ENAUG  =  322.1 eV  augmentation charge cutoff
   NELM   =    100;   NELMIN=  8; NELMDL=  0     # of ELM steps 
   EDIFF  = 0.1E-05   stopping-criterion for ELM
   LREAL  =      F    real-space projection
   NLSPLINE    = F    spline interpolate recip. space projectors
   LCOMPAT=      F    compatible to vasp.4.4
   GGA_COMPAT  = T    GGA compatible to vasp.4.4-vasp.4.6
   LMAXPAW     = -100 max onsite density
   LMAXMIX     =    2 max onsite mixed and CHGCAR
   VOSKOWN=      0    Vosko Wilk Nusair interpolation
   ROPT   =    0.00000
 Ionic relaxation
   EDIFFG = 0.1E-05   stopping-criterion for IOM
   NSW    =      0    number of steps for IOM
   NBLOCK =      1;   KBLOCK =      1    inner block; outer block 
   IBRION =     -1    ionic relax: 0-MD 1-quasi-New 2-CG
   NFREE  =      0    steps in history (QN), initial steepest desc. (CG)
   ISIF   =      2    stress and relaxation
   IWAVPR =     10    prediction:  0-non 1-charg 2-wave 3-comb
   ISYM   =      2    0-nonsym 1-usesym 2-fastsym
   LCORR  =      T    Harris-Foulkes like correction to forces

   POTIM  = 0.0500    time-step for ionic-motion
   TEIN   =    0.0    initial temperature
   TEBEG  =    0.0;   TEEND  =   0.0 temperature during run
   SMASS  =  -3.00    Nose mass-parameter (am)
   estimated Nose-frequenzy (Omega)   =  0.10E-29 period in steps =****** mass=  -0.342E-27a.u.
   SCALEE = 1.0000    scale energy and forces
   NPACO  =    256;   APACO  = 16.0  distance and # of slots for P.C.
   PSTRESS=    0.0 pullay stress

  Mass of Ions in am
   POMASS =  28.09
  Ionic Valenz
   ZVAL   =   4.00
  Atomic Wigner-Seitz radii
   RWIGS  =  -1.00
  virtual crystal weights 
   VCA    =   1.00
   NELECT =       8.0000    total number of electrons
   NUPDOWN=      -1.0000    fix difference up-down

 DOS related values:
   EMIN   =  10.00;   EMAX   =-10.00  energy-range for DOS
   EFERMI =   0.00
   ISMEAR =     0;   SIGMA  =   0.10  broadening in eV -4-tet -1-fermi 0-gaus

 Electronic relaxation 2 (details)
   IALGO  =     38    algorithm
   LDIAG  =      T    sub-space diagonalisation (order eigenvalues)
   LSUBROT=      F    optimize rotation matrix (better conditioning)
   TURBO    =      0    0=normal 1=particle mesh
   IRESTART =      0    0=no restart 2=restart with 2 vectors
   NREBOOT  =      0    no. of reboots
   NMIN     =      0    reboot dimension
   EREF     =   0.00    reference energy to select bands
   IMIX   =      4    mixing-type and parameters
     AMIX     =   0.40;   BMIX     =  1.00
     AMIX_MAG =   1.60;   BMIX_MAG =  1.00
     AMIN     =   0.10
     WC   =   100.;   INIMIX=   1;  MIXPRE=   1;  MAXMIX= -45

 Intra band minimization:
   WEIMIN = 0.0000     energy-eigenvalue tresh-hold
   EBREAK =  0.13E-08  absolut break condition
   DEPER  =   0.30     relativ break condition  

   TIME   =   0.40     timestep for ELM

  volume/ion in A,a.u.               =      20.45       137.97
  Fermi-wavevector in a.u.,A,eV,Ry     =   0.950375  1.795949 12.288967  0.903214
  Thomas-Fermi vector in A             =   2.078746
 
 Write flags
   LWAVE        =      F    write WAVECAR
   LDOWNSAMPLE  =      F    k-point downsampling of WAVECAR
   LCHARG       =      F    write CHGCAR
   LVTOT        =      F    write LOCPOT, total local potential
   LVHAR        =      F    write LOCPOT, Hartree potential only
   LELF         =      F    write electronic localiz. function (ELF)
   LORBIT       =     11    0 simple, 1 ext, 2 COOP (PROOUT), +10 PAW based schemes


 Dipole corrections
   LMONO  =      F    monopole corrections only (constant potential shift)
   LDIPOL =      F    correct potential (dipole corrections)
   IDIPOL =      0    1-x, 2-y, 3-z, 4-all directions 
   EPSILON=  1.0000000 bulk dielectric constant

 Exchange correlation treatment:
   GGA     =    PE    GGA type
   LEXCH   =     8    internal setting for exchange type
   VOSKOWN=      0    Vosko Wilk Nusair interpolation
   LHFCALC =     F    Hartree Fock is set to
   LHFONE  =     F    Hartree Fock one center treatment
   AEXX    =    0.0000 exact exchange contribution

 Linear response parameters
   LEPSILON=     F    determine dielectric tensor
   LRPA    =     F    only Hartree local field effects (RPA)
   LNABLA  =     F    use nabla operator in PAW spheres
   LVEL    =     F    velocity operator in full k-point grid
   LINTERFAST=   F  fast interpolation
   KINTER  =     0    interpolate to denser k-point grid
   CSHIFT  =0.1000    complex shift for real part using Kramers Kronig
   OMEGAMAX=  -1.0    maximum frequency
   DEG_THRESHOLD= 0.2000000E-02 threshold for treating states as degnerate
   RTIME   =   -0.100 relaxation time in fs
  (WPLASMAI=    0.000 imaginary part of plasma frequency in eV, 0.658/RTIME)
   DFIELD  = 0.0000000 0.0000000 0.0000000 field for delta impulse in time
 
 Orbital magnetization related:
   ORBITALMAG=     F  switch on orbital magnetization
   LCHIMAG   =     F  perturbation theory with respect to B field
   DQ        =  0.001000  dq finite difference perturbation B field
   LLRAUG    =     F  two centre corrections for induced B field



--------------------------------------------------------------------------------------------------------


 Static calculation
 charge density and potential remain constant during run
 non-spin polarized calculation
 Variant of blocked Davidson
 Davidson routine will perform the subspace rotation
 perform sub-space diagonalisation
    after iterative eigenvector-optimisation
 no mixing
 using additional bands           16
 reciprocal scheme for non local part
 use partial core corrections
 calculate Harris-corrections to forces 
   (improved forces if not selfconsistent)
 use gradient corrections 
 WARNING: stress and forces are not correct
  (second derivative of E(xc) not defined)
 use of overlap-Matrix (Vanderbilt PP)
 Gauss-broadening in eV      SIGMA  =   0.10


--------------------------------------------------------------------------------------------------------


  energy-cutoff  :      500.00
  volume of cell :       40.89
      direct lattice vectors                 reciprocal lattice vectors
     0.000000000  2.734426560  2.734426560    -0.182853695  0.182853695  0.182853695
     2.734426560  0.000000000  2.734426560     0.182853695 -0.182853695  0.182853695
     2.734426560  2.734426560  0.000000000     0.182853695  0.182853695 -0.182853695

  length of vectors
     3.867063126  3.867063126  3.867063126     0.316711890  0.316711890  0.316711890


 
 k-points in units of 2pi/SCALE and weight: K-line around a specific k point        
   0.00000000  0.00000000  0.00000000       0.006
  -0.04934424 -0.00000000  0.00000000       0.006
  -0.04112020 -0.00000000  0.00000000       0.006
  -0.03289616  0.00000000 -0.00000000       0.006
  -0.02467212 -0.00000000  0.00000000       0.006
  -0.01644808  0.00000000 -0.00000000       0.006
  -0.00822404  0.00000000 -0.00000000       0.006
   0.00822404 -0.00000000  0.00000000       0.006
   0.01644808 -0.00000000  0.00000000       0.006
   0.02467212  0.00000000 -0.00000000       0.006
   0.03289616 -0.00000000  0.00000000       0.006
   0.04112020  0.00000000 -0.00000000       0.006
   0.04934424  0.00000000 -0.00000000       0.006
  -0.00000000 -0.04934424  0.00000000       0.006
  -0.00000000 -0.04112020  0.00000000       0.006
   0.00000000 -0.03289616 -0.00000000       0.006
  -0.00000000 -0.02467212  0.00000000       0.006
   0.00000000 -0.01644808 -0.00000000       0.006
   0.00000000 -0.00822404 -0.00000000       0.006
  -0.00000000  0.00822404  0.00000000       0.006
  -0.00000000  0.01644808  0.00000000       0.006
   0.00000000  0.02467212 -0.00000000       0.006
  -0.00000000  0.03289616  0.00000000       0.006
   0.00000000  0.04112020 -0.00000000       0.006
   0.00000000  0.04934424 -0.00000000       0.006
   0.00000000 -0.00000000 -0.04934424       0.006
   0.00000000 -0.00000000 -0.04112020       0.006
  -0.00000000  0.00000000 -0.03289616       0.006
   0.00000000 -0.00000000 -0.02467212       0.006
  -0.00000000  0.00000000 -0.01644808       0.006
  -0.00000000  0.00000000 -0.00822404       0.006
   0.00000000 -0.00000000  0.00822404       0.006
   0.00000000 -0.00000000  0.01644808       0.006
  -0.00000000  0.00000000  0.02467212       0.006
   0.00000000 -0.00000000  0.03289616       0.006
  -0.00000000  0.00000000  0.04112020       0.006
  -0.00000000  0.00000000  0.04934424       0.006
  -0.04934425 -0.04934425  0.00000001       0.006
  -0.04112020 -0.04112020  0.00000000       0.006
  -0.03289616 -0.03289616 -0.00000000       0.006
  -0.02467212 -0.02467212  0.00000000       0.006
  -0.01644808 -0.01644808 -0.00000000       0.006
  -0.00822404 -0.00822404 -0.00000000       0.006
   0.00822404  0.00822404  0.00000000       0.006
   0.01644808  0.01644808  0.00000000       0.006
   0.02467212  0.02467212 -0.00000000       0.006
   0.03289616  0.03289616  0.00000000       0.006
   0.04112020  0.04112020 -0.00000000       0.006
   0.04934425  0.04934425 -0.00000001       0.006
  -0.04934425  0.00000001 -0.04934425       0.006
  -0.04112020 -0.00000000 -0.04112020       0.006
  -0.03289616  0.00000000 -0.03289616       0.006
  -0.02467212 -0.00000000 -0.02467212       0.006
  -0.01644808  0.00000000 -0.01644808       0.006
  -0.00822404  0.00000000 -0.00822404       0.006
   0.00822404 -0.00000000  0.00822404       0.006
   0.01644808 -0.00000000  0.01644808       0.006
   0.02467212  0.00000000  0.02467212       0.006
   0.03289616 -0.00000000  0.03289616       0.006
   0.04112020  0.00000000  0.04112020       0.006
   0.04934425 -0.00000001  0.04934425       0.006
   0.00000001 -0.04934425 -0.04934425       0.006
   0.00000000 -0.04112020 -0.04112020       0.006
   0.00000000 -0.03289616 -0.03289616       0.006
  -0.00000000 -0.02467212 -0.02467212       0.006
   0.00000000 -0.01644808 -0.01644808       0.006
   0.00000000 -0.00822404 -0.00822404       0.006
  -0.00000000  0.00822404  0.00822404       0.006
  -0.00000000  0.01644808  0.01644808       0.006
   0.00000000  0.02467212  0.02467212       0.006
  -0.00000000  0.03289616  0.03289616       0.006
  -0.00000000  0.04112020  0.04112020       0.006
  -0.00000001  0.04934425  0.04934425       0.006
  -0.04934425 -0.04934425 -0.04934425       0.006
  -0.04112020 -0.04112020 -0.04112020       0.006
  -0.03289616 -0.03289616 -0.03289616       0.006
  -0.02467212 -0.02467212 -0.02467212       0.006
  -0.01644808 -0.01644808 -0.01644808       0.006
  -0.00822404 -0.00822404 -0.00822404       0.006
   0.00822404  0.00822404  0.00822404       0.006
   0.01644808  0.01644808  0.01644808       0.006
   0.02467212  0.02467212  0.02467212       0.006
   0.03289616  0.03289616  0.03289616       0.006
   0.04112020  0.04112020  0.04112020       0.006
   0.04934425  0.04934425  0.04934425       0.006
  -0.00000000  0.85000000  0.00000000       0.006
  -0.04934424  0.85000000 -0.00000000       0.006
  -0.04112020  0.85000000 -0.00000000       0.006
  -0.03289616  0.85000000  0.00000000       0.006
  -0.02467212  0.85000000 -0.00000000       0.006
  -0.01644808  0.85000000 -0.00000000       0.006
  -0.00822404  0.85000000 -0.00000000       0.006
   0.00822404  0.85000000  0.00000000       0.006
   0.01644808  0.85000000 -0.00000000       0.006
   0.02467212  0.85000000 -0.00000000       0.006
   0.03289616  0.85000000 -0.00000000       0.006
   0.04112020  0.85000000 -0.00000000       0.006
   0.04934424  0.85000000 -0.00000000       0.006
   0.00000000  0.80065576 -0.00000000       0.006
  -0.00000000  0.80887980  0.00000000       0.006
  -0.00000000  0.81710384  0.00000000       0.006
   0.00000000  0.82532788 -0.00000000       0.006
   0.00000000  0.83355192 -0.00000000       0.006
   0.00000000  0.84177596 -0.00000000       0.006
  -0.00000000  0.85822404  0.00000000       0.006
   0.00000000  0.86644808 -0.00000000       0.006
   0.00000000  0.87467212 -0.00000000       0.006
   0.00000000  0.88289616 -0.00000000       0.006
   0.00000000  0.89112020 -0.00000000       0.006
  -0.00000000  0.89934424  0.00000000       0.006
  -0.00000000  0.85000000 -0.04934424       0.006
  -0.00000000  0.85000000 -0.04112020       0.006
  -0.00000000  0.85000000 -0.03289616       0.006
  -0.00000000  0.85000000 -0.02467212       0.006
  -0.00000000  0.85000000 -0.01644808       0.006
  -0.00000000  0.85000000 -0.00822404       0.006
  -0.00000000  0.85000000  0.00822404       0.006
  -0.00000000  0.85000000  0.01644808       0.006
  -0.00000000  0.85000000  0.02467212       0.006
  -0.00000000  0.85000000  0.03289616       0.006
  -0.00000000  0.85000000  0.04112020       0.006
  -0.00000000  0.85000000  0.04934424       0.006
  -0.04934425  0.80065575  0.00000001       0.006
  -0.04112020  0.80887980  0.00000000       0.006
  -0.03289616  0.81710384  0.00000000       0.006
  -0.02467212  0.82532788 -0.00000000       0.006
  -0.01644808  0.83355192  0.00000000       0.006
  -0.00822404  0.84177596 -0.00000000       0.006
   0.00822404  0.85822404 -0.00000000       0.006
   0.01644808  0.86644808 -0.00000000       0.006
   0.02467212  0.87467212  0.00000000       0.006
   0.03289616  0.88289616 -0.00000000       0.006
   0.04112020  0.89112020  0.00000000       0.006
   0.04934425  0.89934425 -0.00000001       0.006
  -0.04934425  0.85000001 -0.04934425       0.006
  -0.04112020  0.85000000 -0.04112020       0.006
  -0.03289616  0.85000000 -0.03289616       0.006
  -0.02467212  0.85000000 -0.02467212       0.006
  -0.01644808  0.85000000 -0.01644808       0.006
  -0.00822404  0.85000000 -0.00822404       0.006
   0.00822404  0.85000000  0.00822404       0.006
   0.01644808  0.85000000  0.01644808       0.006
   0.02467212  0.85000000  0.02467212       0.006
   0.03289616  0.85000000  0.03289616       0.006
   0.04112020  0.85000000  0.04112020       0.006
   0.04934425  0.84999999  0.04934425       0.006
   0.00000001  0.80065575 -0.04934425       0.006
   0.00000000  0.80887980 -0.04112020       0.006
   0.00000000  0.81710384 -0.03289616       0.006
   0.00000000  0.82532788 -0.02467212       0.006
   0.00000000  0.83355192 -0.01644808       0.006
  -0.00000000  0.84177596 -0.00822404       0.006
  -0.00000000  0.85822404  0.00822404       0.006
  -0.00000000  0.86644808  0.01644808       0.006
   0.00000000  0.87467212  0.02467212       0.006
   0.00000000  0.88289616  0.03289616       0.006
   0.00000000  0.89112020  0.04112020       0.006
  -0.00000001  0.89934425  0.04934425       0.006
  -0.04934425  0.80065575 -0.04934425       0.006
  -0.04112020  0.80887980 -0.04112020       0.006
  -0.03289616  0.81710384 -0.03289616       0.006
  -0.02467212  0.82532788 -0.02467212       0.006
  -0.01644808  0.83355192 -0.01644808       0.006
  -0.00822404  0.84177596 -0.00822404       0.006
   0.00822404  0.85822404  0.00822404       0.006
   0.01644808  0.86644808  0.01644808       0.006
   0.02467212  0.87467212  0.02467212       0.006
   0.03289616  0.88289616  0.03289616       0.006
   0.04112020  0.89112020  0.04112020       0.006
   0.04934425  0.89934425  0.04934425       0.006
 
 k-points in reciprocal lattice and weights: K-line around a specific k point        
   0.00000000  0.00000000  0.00000000       0.006
   0.00000000 -0.02467212 -0.02467212       0.006
   0.00000000 -0.02056010 -0.02056010       0.006
   0.00000000 -0.01644808 -0.01644808       0.006
   0.00000000 -0.01233606 -0.01233606       0.006
   0.00000000 -0.00822404 -0.00822404       0.006
   0.00000000 -0.00411202 -0.00411202       0.006
   0.00000000  0.00411202  0.00411202       0.006
   0.00000000  0.00822404  0.00822404       0.006
   0.00000000  0.01233606  0.01233606       0.006
   0.00000000  0.01644808  0.01644808       0.006
   0.00000000  0.02056010  0.02056010       0.006
   0.00000000  0.02467212  0.02467212       0.006
  -0.02467212  0.00000000 -0.02467212       0.006
  -0.02056010  0.00000000 -0.02056010       0.006
  -0.01644808  0.00000000 -0.01644808       0.006
  -0.01233606  0.00000000 -0.01233606       0.006
  -0.00822404  0.00000000 -0.00822404       0.006
  -0.00411202  0.00000000 -0.00411202       0.006
   0.00411202  0.00000000  0.00411202       0.006
   0.00822404  0.00000000  0.00822404       0.006
   0.01233606  0.00000000  0.01233606       0.006
   0.01644808  0.00000000  0.01644808       0.006
   0.02056010  0.00000000  0.02056010       0.006
   0.02467212  0.00000000  0.02467212       0.006
  -0.02467212 -0.02467212  0.00000000       0.006
  -0.02056010 -0.02056010  0.00000000       0.006
  -0.01644808 -0.01644808  0.00000000       0.006
  -0.01233606 -0.01233606  0.00000000       0.006
  -0.00822404 -0.00822404  0.00000000       0.006
  -0.00411202 -0.00411202  0.00000000       0.006
   0.00411202  0.00411202  0.00000000       0.006
   0.00822404  0.00822404  0.00000000       0.006
   0.01233606  0.01233606  0.00000000       0.006
   0.01644808  0.01644808  0.00000000       0.006
   0.02056010  0.02056010  0.00000000       0.006
   0.02467212  0.02467212  0.00000000       0.006
  -0.02467212 -0.02467212 -0.04934425       0.006
  -0.02056010 -0.02056010 -0.04112020       0.006
  -0.01644808 -0.01644808 -0.03289616       0.006
  -0.01233606 -0.01233606 -0.02467212       0.006
  -0.00822404 -0.00822404 -0.01644808       0.006
  -0.00411202 -0.00411202 -0.00822404       0.006
   0.00411202  0.00411202  0.00822404       0.006
   0.00822404  0.00822404  0.01644808       0.006
   0.01233606  0.01233606  0.02467212       0.006
   0.01644808  0.01644808  0.03289616       0.006
   0.02056010  0.02056010  0.04112020       0.006
   0.02467212  0.02467212  0.04934425       0.006
  -0.02467212 -0.04934425 -0.02467212       0.006
  -0.02056010 -0.04112020 -0.02056010       0.006
  -0.01644808 -0.03289616 -0.01644808       0.006
  -0.01233606 -0.02467212 -0.01233606       0.006
  -0.00822404 -0.01644808 -0.00822404       0.006
  -0.00411202 -0.00822404 -0.00411202       0.006
   0.00411202  0.00822404  0.00411202       0.006
   0.00822404  0.01644808  0.00822404       0.006
   0.01233606  0.02467212  0.01233606       0.006
   0.01644808  0.03289616  0.01644808       0.006
   0.02056010  0.04112020  0.02056010       0.006
   0.02467212  0.04934425  0.02467212       0.006
  -0.04934425 -0.02467212 -0.02467212       0.006
  -0.04112020 -0.02056010 -0.02056010       0.006
  -0.03289616 -0.01644808 -0.01644808       0.006
  -0.02467212 -0.01233606 -0.01233606       0.006
  -0.01644808 -0.00822404 -0.00822404       0.006
  -0.00822404 -0.00411202 -0.00411202       0.006
   0.00822404  0.00411202  0.00411202       0.006
   0.01644808  0.00822404  0.00822404       0.006
   0.02467212  0.01233606  0.01233606       0.006
   0.03289616  0.01644808  0.01644808       0.006
   0.04112020  0.02056010  0.02056010       0.006
   0.04934425  0.02467212  0.02467212       0.006
  -0.04934425 -0.04934425 -0.04934425       0.006
  -0.04112020 -0.04112020 -0.04112020       0.006
  -0.03289616 -0.03289616 -0.03289616       0.006
  -0.02467212 -0.02467212 -0.02467212       0.006
  -0.01644808 -0.01644808 -0.01644808       0.006
  -0.00822404 -0.00822404 -0.00822404       0.006
   0.00822404  0.00822404  0.00822404       0.006
   0.01644808  0.01644808  0.01644808       0.006
   0.02467212  0.02467212  0.02467212       0.006
   0.03289616  0.03289616  0.03289616       0.006
   0.04112020  0.04112020  0.04112020       0.006
   0.04934425  0.04934425  0.04934425       0.006
   0.42500000  0.00000000  0.42500000       0.006
   0.42500000 -0.02467212  0.40032788       0.006
   0.42500000 -0.02056010  0.40443990       0.006
   0.42500000 -0.01644808  0.40855192       0.006
   0.42500000 -0.01233606  0.41266394       0.006
   0.42500000 -0.00822404  0.41677596       0.006
   0.42500000 -0.00411202  0.42088798       0.006
   0.42500000  0.00411202  0.42911202       0.006
   0.42500000  0.00822404  0.43322404       0.006
   0.42500000  0.01233606  0.43733606       0.006
   0.42500000  0.01644808  0.44144808       0.006
   0.42500000  0.02056010  0.44556010       0.006
   0.42500000  0.02467212  0.44967212       0.006
   0.40032788  0.00000000  0.40032788       0.006
   0.40443990  0.00000000  0.40443990       0.006
   0.40855192  0.00000000  0.40855192       0.006
   0.41266394  0.00000000  0.41266394       0.006
   0.41677596  0.00000000  0.41677596       0.006
   0.42088798  0.00000000  0.42088798       0.006
   0.42911202  0.00000000  0.42911202       0.006
   0.43322404  0.00000000  0.43322404       0.006
   0.43733606  0.00000000  0.43733606       0.006
   0.44144808  0.00000000  0.44144808       0.006
   0.44556010  0.00000000  0.44556010       0.006
   0.44967212  0.00000000  0.44967212       0.006
   0.40032788 -0.02467212  0.42500000       0.006
   0.40443990 -0.02056010  0.42500000       0.006
   0.40855192 -0.01644808  0.42500000       0.006
   0.41266394 -0.01233606  0.42500000       0.006
   0.41677596 -0.00822404  0.42500000       0.006
   0.42088798 -0.00411202  0.42500000       0.006
   0.42911202  0.00411202  0.42500000       0.006
   0.43322404  0.00822404  0.42500000       0.006
   0.43733606  0.01233606  0.42500000       0.006
   0.44144808  0.01644808  0.42500000       0.006
   0.44556010  0.02056010  0.42500000       0.006
   0.44967212  0.02467212  0.42500000       0.006
   0.40032788 -0.02467212  0.37565575       0.006
   0.40443990 -0.02056010  0.38387980       0.006
   0.40855192 -0.01644808  0.39210384       0.006
   0.41266394 -0.01233606  0.40032788       0.006
   0.41677596 -0.00822404  0.40855192       0.006
   0.42088798 -0.00411202  0.41677596       0.006
   0.42911202  0.00411202  0.43322404       0.006
   0.43322404  0.00822404  0.44144808       0.006
   0.43733606  0.01233606  0.44967212       0.006
   0.44144808  0.01644808  0.45789616       0.006
   0.44556010  0.02056010  0.46612020       0.006
   0.44967212  0.02467212  0.47434425       0.006
   0.40032788 -0.04934425  0.40032788       0.006
   0.40443990 -0.04112020  0.40443990       0.006
   0.40855192 -0.03289616  0.40855192       0.006
   0.41266394 -0.02467212  0.41266394       0.006
   0.41677596 -0.01644808  0.41677596       0.006
   0.42088798 -0.00822404  0.42088798       0.006
   0.42911202  0.00822404  0.42911202       0.006
   0.43322404  0.01644808  0.43322404       0.006
   0.43733606  0.02467212  0.43733606       0.006
   0.44144808  0.03289616  0.44144808       0.006
   0.44556010  0.04112020  0.44556010       0.006
   0.44967212  0.04934425  0.44967212       0.006
   0.37565575 -0.02467212  0.40032788       0.006
   0.38387980 -0.02056010  0.40443990       0.006
   0.39210384 -0.01644808  0.40855192       0.006
   0.40032788 -0.01233606  0.41266394       0.006
   0.40855192 -0.00822404  0.41677596       0.006
   0.41677596 -0.00411202  0.42088798       0.006
   0.43322404  0.00411202  0.42911202       0.006
   0.44144808  0.00822404  0.43322404       0.006
   0.44967212  0.01233606  0.43733606       0.006
   0.45789616  0.01644808  0.44144808       0.006
   0.46612020  0.02056010  0.44556010       0.006
   0.47434425  0.02467212  0.44967212       0.006
   0.37565575 -0.04934425  0.37565575       0.006
   0.38387980 -0.04112020  0.38387980       0.006
   0.39210384 -0.03289616  0.39210384       0.006
   0.40032788 -0.02467212  0.40032788       0.006
   0.40855192 -0.01644808  0.40855192       0.006
   0.41677596 -0.00822404  0.41677596       0.006
   0.43322404  0.00822404  0.43322404       0.006
   0.44144808  0.01644808  0.44144808       0.006
   0.44967212  0.02467212  0.44967212       0.006
   0.45789616  0.03289616  0.45789616       0.006
   0.46612020  0.04112020  0.46612020       0.006
   0.47434425  0.04934425  0.47434425       0.006
 
 position of ions in fractional coordinates (direct lattice) 
   0.12500000  0.12500000  0.12500000
   0.87500000  0.87500000  0.87500000
 
 position of ions in cartesian coordinates  (Angst):
   0.68360664  0.68360664  0.68360664
   4.78524648  4.78524648  4.78524648
 


--------------------------------------------------------------------------------------------------------


 k-point  1 :   0.0000 0.0000 0.0000  plane waves:    1037
 k-point  2 :   0.0000-0.0247-0.0247  plane waves:    1022
 k-point  3 :   0.0000-0.0206-0.0206  plane waves:    1026
 k-point  4 :   0.0000-0.0164-0.0164  plane waves:    1022
 k-point  5 :   0.0000-0.0123-0.0123  plane waves:    1033
 k-point  6 :   0.0000-0.0082-0.0082  plane waves:    1037
 k-point  7 :   0.0000-0.0041-0.0041  plane waves:    1037
 k-point  8 :   0.0000 0.0041 0.0041  plane waves:    1037
 k-point  9 :   0.0000 0.0082 0.0082  plane waves:    1037
 k-point 10 :   0.0000 0.0123 0.0123  plane waves:    1033
 k-point 11 :   0.0000 0.0164 0.0164  plane waves:    1022
 k-point 12 :   0.0000 0.0206 0.0206  plane waves:    1026
 k-point 13 :   0.0000 0.0247 0.0247  plane waves:    1022
 k-point 14 :  -0.0247 0.0000-0.0247  plane waves:    1022
 k-point 15 :  -0.0206 0.0000-0.0206  plane waves:    1026
 k-point 16 :  -0.0164 0.0000-0.0164  plane waves:    1022
 k-point 17 :  -0.0123 0.0000-0.0123  plane waves:    1033
 k-point 18 :  -0.0082 0.0000-0.0082  plane waves:    1037
 k-point 19 :  -0.0041 0.0000-0.0041  plane waves:    1037
 k-point 20 :   0.0041 0.0000 0.0041  plane waves:    1037
 k-point 21 :   0.0082 0.0000 0.0082  plane waves:    1037
 k-point 22 :   0.0123 0.0000 0.0123  plane waves:    1033
 k-point 23 :   0.0164 0.0000 0.0164  plane waves:    1022
 k-point 24 :   0.0206 0.0000 0.0206  plane waves:    1026
 k-point 25 :   0.0247 0.0000 0.0247  plane waves:    1022
 k-point 26 :  -0.0247-0.0247 0.0000  plane waves:    1022
 k-point 27 :  -0.0206-0.0206 0.0000  plane waves:    1026
 k-point 28 :  -0.0164-0.0164 0.0000  plane waves:    1022
 k-point 29 :  -0.0123-0.0123 0.0000  plane waves:    1033
 k-point 30 :  -0.0082-0.0082 0.0000  plane waves:    1037
 k-point 31 :  -0.0041-0.0041 0.0000  plane waves:    1037
 k-point 32 :   0.0041 0.0041 0.0000  plane waves:    1037
 k-point 33 :   0.0082 0.0082 0.0000  plane waves:    1037
 k-point 34 :   0.0123 0.0123 0.0000  plane waves:    1033
 k-point 35 :   0.0164 0.0164 0.0000  plane waves:    1022
 k-point 36 :   0.0206 0.0206 0.0000  plane waves:    1026
 k-point 37 :   0.0247 0.0247 0.0000  plane waves:    1022
 k-point 38 :  -0.0247-0.0247-0.0493  plane waves:    1023
 k-point 39 :  -0.0206-0.0206-0.0411  plane waves:    1019
 k-point 40 :  -0.0164-0.0164-0.0329  plane waves:    1025
 k-point 41 :  -0.0123-0.0123-0.0247  plane waves:    1027
 k-point 42 :  -0.0082-0.0082-0.0164  plane waves:    1035
 k-point 43 :  -0.0041-0.0041-0.0082  plane waves:    1037
 k-point 44 :   0.0041 0.0041 0.0082  plane waves:    1037
 k-point 45 :   0.0082 0.0082 0.0164  plane waves:    1035
 k-point 46 :   0.0123 0.0123 0.0247  plane waves:    1027
 k-point 47 :   0.0164 0.0164 0.0329  plane waves:    1025
 k-point 48 :   0.0206 0.0206 0.0411  plane waves:    1019
 k-point 49 :   0.0247 0.0247 0.0493  plane waves:    1023
 k-point 50 :  -0.0247-0.0493-0.0247  plane waves:    1023
 k-point 51 :  -0.0206-0.0411-0.0206  plane waves:    1019
 k-point 52 :  -0.0164-0.0329-0.0164  plane waves:    1025
 k-point 53 :  -0.0123-0.0247-0.0123  plane waves:    1027
 k-point 54 :  -0.0082-0.0164-0.0082  plane waves:    1035
 k-point 55 :  -0.0041-0.0082-0.0041  plane waves:    1037
 k-point 56 :   0.0041 0.0082 0.0041  plane waves:    1037
 k-point 57 :   0.0082 0.0164 0.0082  plane waves:    1035
 k-point 58 :   0.0123 0.0247 0.0123  plane waves:    1027
 k-point 59 :   0.0164 0.0329 0.0164  plane waves:    1025
 k-point 60 :   0.0206 0.0411 0.0206  plane waves:    1019
 k-point 61 :   0.0247 0.0493 0.0247  plane waves:    1023
 k-point 62 :  -0.0493-0.0247-0.0247  plane waves:    1023
 k-point 63 :  -0.0411-0.0206-0.0206  plane waves:    1019
 k-point 64 :  -0.0329-0.0164-0.0164  plane waves:    1025
 k-point 65 :  -0.0247-0.0123-0.0123  plane waves:    1027
 k-point 66 :  -0.0164-0.0082-0.0082  plane waves:    1035
 k-point 67 :  -0.0082-0.0041-0.0041  plane waves:    1037
 k-point 68 :   0.0082 0.0041 0.0041  plane waves:    1037
 k-point 69 :   0.0164 0.0082 0.0082  plane waves:    1035
 k-point 70 :   0.0247 0.0123 0.0123  plane waves:    1027
 k-point 71 :   0.0329 0.0164 0.0164  plane waves:    1025
 k-point 72 :   0.0411 0.0206 0.0206  plane waves:    1019
 k-point 73 :   0.0493 0.0247 0.0247  plane waves:    1023
 k-point 74 :  -0.0493-0.0493-0.0493  plane waves:    1022
 k-point 75 :  -0.0411-0.0411-0.0411  plane waves:    1022
 k-point 76 :  -0.0329-0.0329-0.0329  plane waves:    1022
 k-point 77 :  -0.0247-0.0247-0.0247  plane waves:    1025
 k-point 78 :  -0.0164-0.0164-0.0164  plane waves:    1025
 k-point 79 :  -0.0082-0.0082-0.0082  plane waves:    1037
 k-point 80 :   0.0082 0.0082 0.0082  plane waves:    1037
 k-point 81 :   0.0164 0.0164 0.0164  plane waves:    1025
 k-point 82 :   0.0247 0.0247 0.0247  plane waves:    1025
 k-point 83 :   0.0329 0.0329 0.0329  plane waves:    1022
 k-point 84 :   0.0411 0.0411 0.0411  plane waves:    1022
 k-point 85 :   0.0493 0.0493 0.0493  plane waves:    1022
 k-point 86 :   0.4250 0.0000 0.4250  plane waves:    1042
 k-point 87 :   0.4250-0.0247 0.4003  plane waves:    1039
 k-point 88 :   0.4250-0.0206 0.4044  plane waves:    1041
 k-point 89 :   0.4250-0.0164 0.4086  plane waves:    1040
 k-point 90 :   0.4250-0.0123 0.4127  plane waves:    1040
 k-point 91 :   0.4250-0.0082 0.4168  plane waves:    1040
 k-point 92 :   0.4250-0.0041 0.4209  plane waves:    1042
 k-point 93 :   0.4250 0.0041 0.4291  plane waves:    1042
 k-point 94 :   0.4250 0.0082 0.4332  plane waves:    1040
 k-point 95 :   0.4250 0.0123 0.4373  plane waves:    1040
 k-point 96 :   0.4250 0.0164 0.4414  plane waves:    1040
 k-point 97 :   0.4250 0.0206 0.4456  plane waves:    1041
 k-point 98 :   0.4250 0.0247 0.4497  plane waves:    1039
 k-point 99 :   0.4003 0.0000 0.4003  plane waves:    1034
 k-point ** :   0.4044 0.0000 0.4044  plane waves:    1034
 k-point ** :   0.4086 0.0000 0.4086  plane waves:    1034
 k-point ** :   0.4127 0.0000 0.4127  plane waves:    1034
 k-point ** :   0.4168 0.0000 0.4168  plane waves:    1042
 k-point ** :   0.4209 0.0000 0.4209  plane waves:    1042
 k-point ** :   0.4291 0.0000 0.4291  plane waves:    1042
 k-point ** :   0.4332 0.0000 0.4332  plane waves:    1042
 k-point ** :   0.4373 0.0000 0.4373  plane waves:    1042
 k-point ** :   0.4414 0.0000 0.4414  plane waves:    1042
 k-point ** :   0.4456 0.0000 0.4456  plane waves:    1034
 k-point ** :   0.4497 0.0000 0.4497  plane waves:    1034
 k-point ** :   0.4003-0.0247 0.4250  plane waves:    1039
 k-point ** :   0.4044-0.0206 0.4250  plane waves:    1041
 k-point ** :   0.4086-0.0164 0.4250  plane waves:    1040
 k-point ** :   0.4127-0.0123 0.4250  plane waves:    1040
 k-point ** :   0.4168-0.0082 0.4250  plane waves:    1040
 k-point ** :   0.4209-0.0041 0.4250  plane waves:    1042
 k-point ** :   0.4291 0.0041 0.4250  plane waves:    1042
 k-point ** :   0.4332 0.0082 0.4250  plane waves:    1040
 k-point ** :   0.4373 0.0123 0.4250  plane waves:    1040
 k-point ** :   0.4414 0.0164 0.4250  plane waves:    1040
 k-point ** :   0.4456 0.0206 0.4250  plane waves:    1041
 k-point ** :   0.4497 0.0247 0.4250  plane waves:    1039
 k-point ** :   0.4003-0.0247 0.3757  plane waves:    1034
 k-point ** :   0.4044-0.0206 0.3839  plane waves:    1034
 k-point ** :   0.4086-0.0164 0.3921  plane waves:    1036
 k-point ** :   0.4127-0.0123 0.4003  plane waves:    1038
 k-point ** :   0.4168-0.0082 0.4086  plane waves:    1040
 k-point ** :   0.4209-0.0041 0.4168  plane waves:    1040
 k-point ** :   0.4291 0.0041 0.4332  plane waves:    1042
 k-point ** :   0.4332 0.0082 0.4414  plane waves:    1043
 k-point ** :   0.4373 0.0123 0.4497  plane waves:    1035
 k-point ** :   0.4414 0.0164 0.4579  plane waves:    1036
 k-point ** :   0.4456 0.0206 0.4661  plane waves:    1038
 k-point ** :   0.4497 0.0247 0.4743  plane waves:    1038
 k-point ** :   0.4003-0.0493 0.4003  plane waves:    1039
 k-point ** :   0.4044-0.0411 0.4044  plane waves:    1037
 k-point ** :   0.4086-0.0329 0.4086  plane waves:    1036
 k-point ** :   0.4127-0.0247 0.4127  plane waves:    1038
 k-point ** :   0.4168-0.0164 0.4168  plane waves:    1038
 k-point ** :   0.4209-0.0082 0.4209  plane waves:    1042
 k-point ** :   0.4291 0.0082 0.4291  plane waves:    1042
 k-point ** :   0.4332 0.0164 0.4332  plane waves:    1038
 k-point ** :   0.4373 0.0247 0.4373  plane waves:    1038
 k-point ** :   0.4414 0.0329 0.4414  plane waves:    1036
 k-point ** :   0.4456 0.0411 0.4456  plane waves:    1037
 k-point ** :   0.4497 0.0493 0.4497  plane waves:    1039
 k-point ** :   0.3757-0.0247 0.4003  plane waves:    1034
 k-point ** :   0.3839-0.0206 0.4044  plane waves:    1034
 k-point ** :   0.3921-0.0164 0.4086  plane waves:    1036
 k-point ** :   0.4003-0.0123 0.4127  plane waves:    1038
 k-point ** :   0.4086-0.0082 0.4168  plane waves:    1040
 k-point ** :   0.4168-0.0041 0.4209  plane waves:    1040
 k-point ** :   0.4332 0.0041 0.4291  plane waves:    1042
 k-point ** :   0.4414 0.0082 0.4332  plane waves:    1043
 k-point ** :   0.4497 0.0123 0.4373  plane waves:    1035
 k-point ** :   0.4579 0.0164 0.4414  plane waves:    1036
 k-point ** :   0.4661 0.0206 0.4456  plane waves:    1038
 k-point ** :   0.4743 0.0247 0.4497  plane waves:    1038
 k-point ** :   0.3757-0.0493 0.3757  plane waves:    1038
 k-point ** :   0.3839-0.0411 0.3839  plane waves:    1037
 k-point ** :   0.3921-0.0329 0.3921  plane waves:    1037
 k-point ** :   0.4003-0.0247 0.4003  plane waves:    1038
 k-point ** :   0.4086-0.0164 0.4086  plane waves:    1038
 k-point ** :   0.4168-0.0082 0.4168  plane waves:    1038
 k-point ** :   0.4332 0.0082 0.4332  plane waves:    1042
 k-point ** :   0.4414 0.0164 0.4414  plane waves:    1042
 k-point ** :   0.4497 0.0247 0.4497  plane waves:    1037
 k-point ** :   0.4579 0.0329 0.4579  plane waves:    1036
 k-point ** :   0.4661 0.0411 0.4661  plane waves:    1034
 k-point ** :   0.4743 0.0493 0.4743  plane waves:    1034

 maximum and minimum number of plane-waves per node :        75       56

 maximum number of plane-waves:      1043
 maximum index in each direction: 
   IXMAX=    7   IYMAX=    7   IZMAX=    7
   IXMIN=   -7   IYMIN=   -7   IZMIN=   -7


 parallel 3D FFT for wavefunctions:
    minimum data exchange during FFTs selected (reduces bandwidth)
 parallel 3D FFT for charge:
    minimum data exchange during FFTs selected (reduces bandwidth)


 total amount of memory used by VASP MPI-rank0    35094. kBytes
=======================================================================

   base      :      30000. kBytes
   nonl-proj :        731. kBytes
   fftplans  :        127. kBytes
   grid      :        153. kBytes
   one-center:          3. kBytes
   wavefun   :       4080. kBytes
 
     INWAV:  cpu time    0.0000: real time    0.0000
 initial charge density was supplied:
 number of electron       8.0000004 magnetization 
 keeping initial charge density in first step


--------------------------------------------------------------------------------------------------------


 Maximum index for augmentation-charges          187 (set IRDMAX)


--------------------------------------------------------------------------------------------------------


 First call to EWALD:  gamma=   0.514
 Maximum number of real-space cells 3x 3x 3
 Maximum number of reciprocal cells 3x 3x 3

    FEWALD:  cpu time    0.0013: real time    0.0013


--------------------------------------- Iteration      1(   1)  ---------------------------------------


    POTLOK:  cpu time    0.0044: real time    0.0047
    SETDIJ:  cpu time    0.0013: real time    0.0013
     EDDAV:  cpu time    1.9143: real time    1.9342
       DOS:  cpu time    0.0065: real time    0.0066
    --------------------------------------------
      LOOP:  cpu time    1.9265: real time    1.9469

 eigenvalue-minimisations  :  6800
 total energy-change (2. order) : 0.1256846E+02  (-0.2869104E+03)
 number of electron       8.0000004 magnetization 
 augmentation part        8.0000004 magnetization 

 Free energy of the ion-electron system (eV)
  ---------------------------------------------------
  alpha Z        PSCENC =         3.29295434
  Ewald energy   TEWEN  =      -226.93970987
  -Hartree energ DENC   =       -12.84051696
  -exchange      EXHF   =         0.00000000
  -V(xc)+E(xc)   XCENC  =       -18.69007042
  PAW double counting   =       829.54265742     -794.56149267
  entropy T*S    EENTRO =        -0.01051450
  eigenvalues    EBANDS =        26.64263882
  atomic energy  EATOM  =       206.13251344
  Solvation  Ediel_sol  =         0.00000000
  ---------------------------------------------------
  free energy    TOTEN  =        12.56845961 eV

  energy without entropy =       12.57897411  energy(sigma->0) =       12.57371686


--------------------------------------------------------------------------------------------------------




--------------------------------------- Iteration      1(   2)  ---------------------------------------


     EDDAV:  cpu time    2.4491: real time    2.5124
       DOS:  cpu time    0.0065: real time    0.0066
    --------------------------------------------
      LOOP:  cpu time    2.4556: real time    2.5190

 eigenvalue-minimisations  :  8488
 total energy-change (2. order) :-0.1612169E+02  (-0.1497039E+02)
 number of electron       8.0000004 magnetization 
 augmentation part        8.0000004 magnetization 

 Free energy of the ion-electron system (eV)
  ---------------------------------------------------
  alpha Z        PSCENC =         3.29295434
  Ewald energy   TEWEN  =      -226.93970987
  -Hartree energ DENC   =       -12.84051696
  -exchange      EXHF   =         0.00000000
  -V(xc)+E(xc)   XCENC  =       -18.69007042
  PAW double counting   =       829.54265742     -794.56149267
  entropy T*S    EENTRO =        -0.00001976
  eigenvalues    EBANDS =        10.51045212
  atomic energy  EATOM  =       206.13251344
  Solvation  Ediel_sol  =         0.00000000
  ---------------------------------------------------
  free energy    TOTEN  =        -3.55323235 eV

  energy without entropy =       -3.55321259  energy(sigma->0) =       -3.55322247


--------------------------------------------------------------------------------------------------------




--------------------------------------- Iteration      1(   3)  ---------------------------------------


     EDDAV:  cpu time    2.0889: real time    2.1241
       DOS:  cpu time    0.0056: real time    0.0056
    --------------------------------------------
      LOOP:  cpu time    2.0944: real time    2.1297

 eigenvalue-minimisations  :  8372
 total energy-change (2. order) :-0.5186842E+00  (-0.5145035E+00)
 number of electron       8.0000004 magnetization 
 augmentation part        8.0000004 magnetization 

 Free energy of the ion-electron system (eV)
  ---------------------------------------------------
  alpha Z        PSCENC =         3.29295434
  Ewald energy   TEWEN  =      -226.93970987
  -Hartree energ DENC   =       -12.84051696
  -exchange      EXHF   =         0.00000000
  -V(xc)+E(xc)   XCENC  =       -18.69007042
  PAW double counting   =       829.54265742     -794.56149267
  entropy T*S    EENTRO =        -0.00000028
  eigenvalues    EBANDS =         9.99174845
  atomic energy  EATOM  =       206.13251344
  Solvation  Ediel_sol  =         0.00000000
  ---------------------------------------------------
  free energy    TOTEN  =        -4.07191655 eV

  energy without entropy =       -4.07191626  energy(sigma->0) =       -4.07191640


--------------------------------------------------------------------------------------------------------




--------------------------------------- Iteration      1(   4)  ---------------------------------------


     EDDAV:  cpu time    2.1734: real time    2.1952
       DOS:  cpu time    0.0062: real time    0.0062
    --------------------------------------------
      LOOP:  cpu time    2.1796: real time    2.2014

 eigenvalue-minimisations  :  9396
 total energy-change (2. order) :-0.2604222E-02  (-0.2603490E-02)
 number of electron       8.0000004 magnetization 
 augmentation part        8.0000004 magnetization 

 Free energy of the ion-electron system (eV)
  ---------------------------------------------------
  alpha Z        PSCENC =         3.29295434
  Ewald energy   TEWEN  =      -226.93970987
  -Hartree energ DENC   =       -12.84051696
  -exchange      EXHF   =         0.00000000
  -V(xc)+E(xc)   XCENC  =       -18.69007042
  PAW double counting   =       829.54265742     -794.56149267
  entropy T*S    EENTRO =        -0.00000029
  eigenvalues    EBANDS =         9.98914423
  atomic energy  EATOM  =       206.13251344
  Solvation  Ediel_sol  =         0.00000000
  ---------------------------------------------------
  free energy    TOTEN  =        -4.07452077 eV

  energy without entropy =       -4.07452048  energy(sigma->0) =       -4.07452062


--------------------------------------------------------------------------------------------------------




--------------------------------------- Iteration      1(   5)  ---------------------------------------


     EDDAV:  cpu time    2.3041: real time    2.3274
       DOS:  cpu time    0.0060: real time    0.0060
    --------------------------------------------
      LOOP:  cpu time    2.3101: real time    2.3334

 eigenvalue-minimisations  :  8964
 total energy-change (2. order) :-0.1468908E-04  (-0.1468805E-04)
 number of electron       8.0000004 magnetization 
 augmentation part        8.0000004 magnetization 

 Free energy of the ion-electron system (eV)
  ---------------------------------------------------
  alpha Z        PSCENC =         3.29295434
  Ewald energy   TEWEN  =      -226.93970987
  -Hartree energ DENC   =       -12.84051696
  -exchange      EXHF   =         0.00000000
  -V(xc)+E(xc)   XCENC  =       -18.69007042
  PAW double counting   =       829.54265742     -794.56149267
  entropy T*S    EENTRO =        -0.00000029
  eigenvalues    EBANDS =         9.98912954
  atomic energy  EATOM  =       206.13251344
  Solvation  Ediel_sol  =         0.00000000
  ---------------------------------------------------
  free energy    TOTEN  =        -4.07453546 eV

  energy without entropy =       -4.07453517  energy(sigma->0) =       -4.07453531


--------------------------------------------------------------------------------------------------------




--------------------------------------- Iteration      1(   6)  ---------------------------------------


     EDDAV:  cpu time    2.2317: real time    2.2549
       DOS:  cpu time    0.0057: real time    0.0058
    --------------------------------------------
      LOOP:  cpu time    2.2374: real time    2.2607

 eigenvalue-minimisations  :  9500
 total energy-change (2. order) :-0.1203024E-06  (-0.1201774E-06)
 number of electron       8.0000004 magnetization 
 augmentation part        8.0000004 magnetization 

 Free energy of the ion-electron system (eV)
  ---------------------------------------------------
  alpha Z        PSCENC =         3.29295434
  Ewald energy   TEWEN  =      -226.93970987
  -Hartree energ DENC   =       -12.84051696
  -exchange      EXHF   =         0.00000000
  -V(xc)+E(xc)   XCENC  =       -18.69007042
  PAW double counting   =       829.54265742     -794.56149267
  entropy T*S    EENTRO =        -0.00000029
  eigenvalues    EBANDS =         9.98912942
  atomic energy  EATOM  =       206.13251344
  Solvation  Ediel_sol  =         0.00000000
  ---------------------------------------------------
  free energy    TOTEN  =        -4.07453558 eV

  energy without entropy =       -4.07453529  energy(sigma->0) =       -4.07453543


--------------------------------------------------------------------------------------------------------




--------------------------------------- Iteration      1(   7)  ---------------------------------------


     EDDAV:  cpu time    2.0633: real time    2.0852
       DOS:  cpu time    0.0060: real time    0.0060
    --------------------------------------------
      LOOP:  cpu time    2.0693: real time    2.0913

 eigenvalue-minimisations  :  8172
 total energy-change (2. order) :-0.3365130E-09  (-0.1138412E-08)
 number of electron       8.0000004 magnetization 
 augmentation part        8.0000004 magnetization 

 Free energy of the ion-electron system (eV)
  ---------------------------------------------------
  alpha Z        PSCENC =         3.29295434
  Ewald energy   TEWEN  =      -226.93970987
  -Hartree energ DENC   =       -12.84051696
  -exchange      EXHF   =         0.00000000
  -V(xc)+E(xc)   XCENC  =       -18.69007042
  PAW double counting   =       829.54265742     -794.56149267
  entropy T*S    EENTRO =        -0.00000029
  eigenvalues    EBANDS =         9.98912942
  atomic energy  EATOM  =       206.13251344
  Solvation  Ediel_sol  =         0.00000000
  ---------------------------------------------------
  free energy    TOTEN  =        -4.07453558 eV

  energy without entropy =       -4.07453529  energy(sigma->0) =       -4.07453543


--------------------------------------------------------------------------------------------------------




--------------------------------------- Iteration      1(   8)  ---------------------------------------


     EDDAV:  cpu time    2.1334: real time    2.1552
       DOS:  cpu time    0.0057: real time    0.0057
    --------------------------------------------
      LOOP:  cpu time    2.1391: real time    2.1609

 eigenvalue-minimisations  :  7412
 total energy-change (2. order) : 0.8571988E-10  (-0.6266343E-10)
 number of electron       8.0000004 magnetization 
 augmentation part        8.0000004 magnetization 

 Free energy of the ion-electron system (eV)
  ---------------------------------------------------
  alpha Z        PSCENC =         3.29295434
  Ewald energy   TEWEN  =      -226.93970987
  -Hartree energ DENC   =       -12.84051696
  -exchange      EXHF   =         0.00000000
  -V(xc)+E(xc)   XCENC  =       -18.69007042
  PAW double counting   =       829.54265742     -794.56149267
  entropy T*S    EENTRO =        -0.00000029
  eigenvalues    EBANDS =         9.98912942
  atomic energy  EATOM  =       206.13251344
  Solvation  Ediel_sol  =         0.00000000
  ---------------------------------------------------
  free energy    TOTEN  =        -4.07453558 eV

  energy without entropy =       -4.07453529  energy(sigma->0) =       -4.07453543


--------------------------------------------------------------------------------------------------------




 average (electrostatic) potential at core
  the test charge radii are     0.9892
  (the norm of the test charge is              1.0000)
       1 -82.5050       2 -84.1423
 
 
 
 E-fermi :   5.8168     XC(G=0):  -9.3514     alpha+bet :-11.7309


 k-point     1 :       0.0000    0.0000    0.0000
  band No.  band energies     occupation 
      1      -6.4238      2.00000
      2       5.1834      2.00000
      3       5.1834      2.00000
      4       5.4869      2.00000
      5       8.0059      0.00000
      6       8.0207      0.00000
      7       8.0207      0.00000
      8       8.5276      0.00000
      9      13.1958      0.00000
     10      13.1958      0.00000
     11      13.5911      0.00000
     12      16.6840      0.00000
     13      16.8397      0.00000
     14      16.8397      0.00000
     15      21.2946      0.00000
     16      28.1937      0.00000
     17      28.2733      0.00000
     18      28.2733      0.00000
     19      29.3298      0.00000
     20      29.3299      0.00000

 k-point     2 :       0.0000   -0.0247   -0.0247
  band No.  band energies     occupation 
      1      -6.4135      2.00000
      2       5.1161      2.00000
      3       5.1447      2.00000
      4       5.4397      2.00000
      5       7.9880      0.00000
      6       8.0668      0.00000
      7       8.0723      0.00000
      8       8.6013      0.00000
      9      13.1149      0.00000
     10      13.2074      0.00000
     11      13.6359      0.00000
     12      16.7156      0.00000
     13      16.8578      0.00000
     14      16.8876      0.00000
     15      21.3644      0.00000
     16      28.0481      0.00000
     17      28.0989      0.00000
     18      28.2668      0.00000
     19      29.2015      0.00000
     20      29.2341      0.00000

 k-point     3 :       0.0000   -0.0206   -0.0206
  band No.  band energies     occupation 
      1      -6.4167      2.00000
      2       5.1364      2.00000
      3       5.1564      2.00000
      4       5.4539      2.00000
      5       7.9951      0.00000
      6       8.0512      0.00000
      7       8.0567      0.00000
      8       8.5792      0.00000
      9      13.1392      0.00000
     10      13.2038      0.00000
     11      13.6222      0.00000
     12      16.7066      0.00000
     13      16.8523      0.00000
     14      16.8727      0.00000
     15      21.3431      0.00000
     16      28.0948      0.00000
     17      28.1501      0.00000
     18      28.2647      0.00000
     19      29.2402      0.00000
     20      29.2625      0.00000

 k-point     4 :       0.0000   -0.0164   -0.0164
  band No.  band energies     occupation 
      1      -6.4192      2.00000
      2       5.1532      2.00000
      3       5.1660      2.00000
      4       5.4656      2.00000
      5       8.0006      0.00000
      6       8.0386      0.00000
      7       8.0439      0.00000
      8       8.5609      0.00000
      9      13.1593      0.00000
     10      13.2009      0.00000
     11      13.6110      0.00000
     12      16.6988      0.00000
     13      16.8478      0.00000
     14      16.8607      0.00000
     15      21.3257      0.00000
     16      28.1329      0.00000
     17      28.1933      0.00000
     18      28.2643      0.00000
     19      29.2723      0.00000
     20      29.2864      0.00000

 k-point     5 :       0.0000   -0.0123   -0.0123
  band No.  band energies     occupation 
      1      -6.4213      2.00000
      2       5.1663      2.00000
      3       5.1736      2.00000
      4       5.4749      2.00000
      5       8.0044      0.00000
      6       8.0293      0.00000
      7       8.0338      0.00000
      8       8.5464      0.00000
      9      13.1752      0.00000
     10      13.1987      0.00000
     11      13.6023      0.00000
     12      16.6925      0.00000
     13      16.8442      0.00000
     14      16.8514      0.00000
     15      21.3121      0.00000
     16      28.1614      0.00000
     17      28.2277      0.00000
     18      28.2658      0.00000
     19      29.2973      0.00000
     20      29.3051      0.00000

 k-point     6 :       0.0000   -0.0082   -0.0082
  band No.  band energies     occupation 
      1      -6.4227      2.00000
      2       5.1758      2.00000
      3       5.1790      2.00000
      4       5.4815      2.00000
      5       8.0061      0.00000
      6       8.0237      0.00000
      7       8.0266      0.00000
      8       8.5360      0.00000
      9      13.1866      0.00000
     10      13.1971      0.00000
     11      13.5961      0.00000
     12      16.6879      0.00000
     13      16.8417      0.00000
     14      16.8449      0.00000
     15      21.3024      0.00000
     16      28.1803      0.00000
     17      28.2528      0.00000
     18      28.2689      0.00000
     19      29.3154      0.00000
     20      29.3189      0.00000

 k-point     7 :       0.0000   -0.0041   -0.0041
  band No.  band energies     occupation 
      1      -6.4236      2.00000
      2       5.1815      2.00000
      3       5.1823      2.00000
      4       5.4855      2.00000
      5       8.0062      0.00000
      6       8.0213      0.00000
      7       8.0222      0.00000
      8       8.5297      0.00000
      9      13.1935      0.00000
     10      13.1961      0.00000
     11      13.5923      0.00000
     12      16.6850      0.00000
     13      16.8402      0.00000
     14      16.8410      0.00000
     15      21.2965      0.00000
     16      28.1905      0.00000
     17      28.2681      0.00000
     18      28.2720      0.00000
     19      29.3263      0.00000
     20      29.3272      0.00000

 k-point     8 :       0.0000    0.0041    0.0041
  band No.  band energies     occupation 
      1      -6.4236      2.00000
      2       5.1815      2.00000
      3       5.1823      2.00000
      4       5.4855      2.00000
      5       8.0062      0.00000
      6       8.0213      0.00000
      7       8.0222      0.00000
      8       8.5297      0.00000
      9      13.1935      0.00000
     10      13.1961      0.00000
     11      13.5923      0.00000
     12      16.6850      0.00000
     13      16.8402      0.00000
     14      16.8410      0.00000
     15      21.2965      0.00000
     16      28.1905      0.00000
     17      28.2681      0.00000
     18      28.2720      0.00000
     19      29.3262      0.00000
     20      29.3270      0.00000

 k-point     9 :       0.0000    0.0082    0.0082
  band No.  band energies     occupation 
      1      -6.4227      2.00000
      2       5.1758      2.00000
      3       5.1790      2.00000
      4       5.4815      2.00000
      5       8.0061      0.00000
      6       8.0237      0.00000
      7       8.0266      0.00000
      8       8.5360      0.00000
      9      13.1866      0.00000
     10      13.1971      0.00000
     11      13.5961      0.00000
     12      16.6879      0.00000
     13      16.8417      0.00000
     14      16.8449      0.00000
     15      21.3024      0.00000
     16      28.1803      0.00000
     17      28.2528      0.00000
     18      28.2689      0.00000
     19      29.3153      0.00000
     20      29.3188      0.00000

 k-point    10 :       0.0000    0.0123    0.0123
  band No.  band energies     occupation 
      1      -6.4213      2.00000
      2       5.1663      2.00000
      3       5.1736      2.00000
      4       5.4749      2.00000
      5       8.0044      0.00000
      6       8.0293      0.00000
      7       8.0338      0.00000
      8       8.5464      0.00000
      9      13.1752      0.00000
     10      13.1987      0.00000
     11      13.6023      0.00000
     12      16.6925      0.00000
     13      16.8442      0.00000
     14      16.8514      0.00000
     15      21.3121      0.00000
     16      28.1614      0.00000
     17      28.2277      0.00000
     18      28.2658      0.00000
     19      29.2973      0.00000
     20      29.3053      0.00000

 k-point    11 :       0.0000    0.0164    0.0164
  band No.  band energies     occupation 
      1      -6.4192      2.00000
      2       5.1532      2.00000
      3       5.1660      2.00000
      4       5.4656      2.00000
      5       8.0006      0.00000
      6       8.0386      0.00000
      7       8.0439      0.00000
      8       8.5609      0.00000
      9      13.1593      0.00000
     10      13.2009      0.00000
     11      13.6110      0.00000
     12      16.6988      0.00000
     13      16.8478      0.00000
     14      16.8607      0.00000
     15      21.3257      0.00000
     16      28.1329      0.00000
     17      28.1933      0.00000
     18      28.2643      0.00000
     19      29.2722      0.00000
     20      29.2865      0.00000

 k-point    12 :       0.0000    0.0206    0.0206
  band No.  band energies     occupation 
      1      -6.4167      2.00000
      2       5.1364      2.00000
      3       5.1564      2.00000
      4       5.4539      2.00000
      5       7.9951      0.00000
      6       8.0512      0.00000
      7       8.0567      0.00000
      8       8.5792      0.00000
      9      13.1392      0.00000
     10      13.2038      0.00000
     11      13.6222      0.00000
     12      16.7066      0.00000
     13      16.8523      0.00000
     14      16.8727      0.00000
     15      21.3431      0.00000
     16      28.0948      0.00000
     17      28.1501      0.00000
     18      28.2647      0.00000
     19      29.2402      0.00000
     20      29.2626      0.00000

 k-point    13 :       0.0000    0.0247    0.0247
  band No.  band energies     occupation 
      1      -6.4135      2.00000
      2       5.1161      2.00000
      3       5.1447      2.00000
      4       5.4397      2.00000
      5       7.9880      0.00000
      6       8.0668      0.00000
      7       8.0723      0.00000
      8       8.6013      0.00000
      9      13.1149      0.00000
     10      13.2074      0.00000
     11      13.6359      0.00000
     12      16.7156      0.00000
     13      16.8578      0.00000
     14      16.8876      0.00000
     15      21.3644      0.00000
     16      28.0481      0.00000
     17      28.0989      0.00000
     18      28.2668      0.00000
     19      29.2015      0.00000
     20      29.2341      0.00000

 k-point    14 :      -0.0247    0.0000   -0.0247
  band No.  band energies     occupation 
      1      -6.4135      2.00000
      2       5.1161      2.00000
      3       5.1447      2.00000
      4       5.4397      2.00000
      5       7.9880      0.00000
      6       8.0668      0.00000
      7       8.0723      0.00000
      8       8.6013      0.00000
      9      13.1149      0.00000
     10      13.2074      0.00000
     11      13.6359      0.00000
     12      16.7156      0.00000
     13      16.8578      0.00000
     14      16.8876      0.00000
     15      21.3644      0.00000
     16      28.0481      0.00000
     17      28.0989      0.00000
     18      28.2668      0.00000
     19      29.2015      0.00000
     20      29.2342      0.00000

 k-point    15 :      -0.0206    0.0000   -0.0206
  band No.  band energies     occupation 
      1      -6.4167      2.00000
      2       5.1364      2.00000
      3       5.1564      2.00000
      4       5.4539      2.00000
      5       7.9951      0.00000
      6       8.0512      0.00000
      7       8.0567      0.00000
      8       8.5792      0.00000
      9      13.1392      0.00000
     10      13.2038      0.00000
     11      13.6222      0.00000
     12      16.7066      0.00000
     13      16.8523      0.00000
     14      16.8727      0.00000
     15      21.3431      0.00000
     16      28.0948      0.00000
     17      28.1501      0.00000
     18      28.2647      0.00000
     19      29.2402      0.00000
     20      29.2626      0.00000

 k-point    16 :      -0.0164    0.0000   -0.0164
  band No.  band energies     occupation 
      1      -6.4192      2.00000
      2       5.1532      2.00000
      3       5.1660      2.00000
      4       5.4656      2.00000
      5       8.0006      0.00000
      6       8.0386      0.00000
      7       8.0439      0.00000
      8       8.5609      0.00000
      9      13.1593      0.00000
     10      13.2009      0.00000
     11      13.6110      0.00000
     12      16.6988      0.00000
     13      16.8478      0.00000
     14      16.8607      0.00000
     15      21.3257      0.00000
     16      28.1329      0.00000
     17      28.1933      0.00000
     18      28.2643      0.00000
     19      29.2722      0.00000
     20      29.2864      0.00000

 k-point    17 :      -0.0123    0.0000   -0.0123
  band No.  band energies     occupation 
      1      -6.4213      2.00000
      2       5.1663      2.00000
      3       5.1736      2.00000
      4       5.4749      2.00000
      5       8.0044      0.00000
      6       8.0293      0.00000
      7       8.0338      0.00000
      8       8.5464      0.00000
      9      13.1752      0.00000
     10      13.1987      0.00000
     11      13.6023      0.00000
     12      16.6925      0.00000
     13      16.8442      0.00000
     14      16.8514      0.00000
     15      21.3121      0.00000
     16      28.1614      0.00000
     17      28.2277      0.00000
     18      28.2658      0.00000
     19      29.2973      0.00000
     20      29.3051      0.00000

 k-point    18 :      -0.0082    0.0000   -0.0082
  band No.  band energies     occupation 
      1      -6.4227      2.00000
      2       5.1758      2.00000
      3       5.1790      2.00000
      4       5.4815      2.00000
      5       8.0061      0.00000
      6       8.0237      0.00000
      7       8.0266      0.00000
      8       8.5360      0.00000
      9      13.1866      0.00000
     10      13.1971      0.00000
     11      13.5961      0.00000
     12      16.6879      0.00000
     13      16.8417      0.00000
     14      16.8449      0.00000
     15      21.3024      0.00000
     16      28.1803      0.00000
     17      28.2528      0.00000
     18      28.2689      0.00000
     19      29.3153      0.00000
     20      29.3188      0.00000

 k-point    19 :      -0.0041    0.0000   -0.0041
  band No.  band energies     occupation 
      1      -6.4236      2.00000
      2       5.1815      2.00000
      3       5.1823      2.00000
      4       5.4855      2.00000
      5       8.0062      0.00000
      6       8.0213      0.00000
      7       8.0222      0.00000
      8       8.5297      0.00000
      9      13.1935      0.00000
     10      13.1961      0.00000
     11      13.5923      0.00000
     12      16.6850      0.00000
     13      16.8402      0.00000
     14      16.8410      0.00000
     15      21.2965      0.00000
     16      28.1905      0.00000
     17      28.2681      0.00000
     18      28.2720      0.00000
     19      29.3262      0.00000
     20      29.3271      0.00000

 k-point    20 :       0.0041    0.0000    0.0041
  band No.  band energies     occupation 
      1      -6.4236      2.00000
      2       5.1815      2.00000
      3       5.1823      2.00000
      4       5.4855      2.00000
      5       8.0062      0.00000
      6       8.0213      0.00000
      7       8.0222      0.00000
      8       8.5297      0.00000
      9      13.1935      0.00000
     10      13.1961      0.00000
     11      13.5923      0.00000
     12      16.6850      0.00000
     13      16.8402      0.00000
     14      16.8410      0.00000
     15      21.2965      0.00000
     16      28.1905      0.00000
     17      28.2681      0.00000
     18      28.2720      0.00000
     19      29.3262      0.00000
     20      29.3271      0.00000

 k-point    21 :       0.0082    0.0000    0.0082
  band No.  band energies     occupation 
      1      -6.4227      2.00000
      2       5.1758      2.00000
      3       5.1790      2.00000
      4       5.4815      2.00000
      5       8.0061      0.00000
      6       8.0237      0.00000
      7       8.0266      0.00000
      8       8.5360      0.00000
      9      13.1866      0.00000
     10      13.1971      0.00000
     11      13.5961      0.00000
     12      16.6879      0.00000
     13      16.8417      0.00000
     14      16.8449      0.00000
     15      21.3024      0.00000
     16      28.1803      0.00000
     17      28.2528      0.00000
     18      28.2689      0.00000
     19      29.3153      0.00000
     20      29.3190      0.00000

 k-point    22 :       0.0123    0.0000    0.0123
  band No.  band energies     occupation 
      1      -6.4213      2.00000
      2       5.1663      2.00000
      3       5.1736      2.00000
      4       5.4749      2.00000
      5       8.0044      0.00000
      6       8.0293      0.00000
      7       8.0338      0.00000
      8       8.5464      0.00000
      9      13.1752      0.00000
     10      13.1987      0.00000
     11      13.6023      0.00000
     12      16.6925      0.00000
     13      16.8442      0.00000
     14      16.8514      0.00000
     15      21.3121      0.00000
     16      28.1614      0.00000
     17      28.2277      0.00000
     18      28.2658      0.00000
     19      29.2973      0.00000
     20      29.3052      0.00000

 k-point    23 :       0.0164    0.0000    0.0164
  band No.  band energies     occupation 
      1      -6.4192      2.00000
      2       5.1532      2.00000
      3       5.1660      2.00000
      4       5.4656      2.00000
      5       8.0006      0.00000
      6       8.0386      0.00000
      7       8.0439      0.00000
      8       8.5609      0.00000
      9      13.1593      0.00000
     10      13.2009      0.00000
     11      13.6110      0.00000
     12      16.6988      0.00000
[...]
  band No.  band energies     occupation 
      1      -3.3148      2.00000
      2      -1.4030      2.00000
      3       2.5797      2.00000
      4       2.7139      2.00000
      5       6.1703      0.00000
      6       6.6949      0.00000
      7      14.3795      0.00000
      8      14.4817      0.00000
      9      16.8344      0.00000
     10      17.0417      0.00000
     11      17.1286      0.00000
     12      17.2614      0.00000
     13      19.0453      0.00000
     14      19.1901      0.00000
     15      22.8740      0.00000
     16      23.5750      0.00000
     17      23.7385      0.00000
     18      24.4503      0.00000
     19      27.0253      0.00000
     20      27.2772      0.00000

 k-point   156 :       0.4579    0.0164    0.4414
  band No.  band energies     occupation 
      1      -3.2598      2.00000
      2      -1.4664      2.00000
      3       2.5667      2.00000
      4       2.7001      2.00000
      5       6.1838      0.00000
      6       6.6802      0.00000
      7      14.4151      0.00000
      8      14.5534      0.00000
      9      16.8967      0.00000
     10      16.9858      0.00000
     11      17.0537      0.00000
     12      17.3303      0.00000
     13      19.0230      0.00000
     14      19.1333      0.00000
     15      22.9153      0.00000
     16      23.6642      0.00000
     17      23.8942      0.00000
     18      24.5112      0.00000
     19      26.8611      0.00000
     20      27.1409      0.00000

 k-point   157 :       0.4661    0.0206    0.4456
  band No.  band energies     occupation 
      1      -3.2043      2.00000
      2      -1.5293      2.00000
      3       2.5527      2.00000
      4       2.6855      2.00000
      5       6.2007      0.00000
      6       6.6693      0.00000
      7      14.4414      0.00000
      8      14.6255      0.00000
      9      16.8477      0.00000
     10      16.9389      0.00000
     11      17.0440      0.00000
     12      17.4347      0.00000
     13      18.9820      0.00000
     14      19.1042      0.00000
     15      22.9529      0.00000
     16      23.7456      0.00000
     17      24.0593      0.00000
     18      24.5734      0.00000
     19      26.7017      0.00000
     20      27.0000      0.00000

 k-point   158 :       0.4743    0.0247    0.4497
  band No.  band energies     occupation 
      1      -3.1484      2.00000
      2      -1.5918      2.00000
      3       2.5376      2.00000
      4       2.6702      2.00000
      5       6.2212      0.00000
      6       6.6624      0.00000
      7      14.4595      0.00000
      8      14.6970      0.00000
      9      16.7296      0.00000
     10      16.8662      0.00000
     11      17.1134      0.00000
     12      17.5541      0.00000
     13      18.9251      0.00000
     14      19.0989      0.00000
     15      22.9887      0.00000
     16      23.8208      0.00000
     17      24.2290      0.00000
     18      24.6337      0.00000
     19      26.5526      0.00000
     20      26.8570      0.00000

 k-point   159 :       0.3757   -0.0493    0.3757
  band No.  band energies     occupation 
      1      -3.7712      2.00000
      2      -0.8447      2.00000
      3       2.6915      2.00000
      4       2.7320      2.00000
      5       6.2407      0.00000
      6       7.0677      0.00000
      7      13.6573      0.00000
      8      13.6862      0.00000
      9      16.2934      0.00000
     10      16.4886      0.00000
     11      17.5492      0.00000
     12      17.5656      0.00000
     13      19.4722      0.00000
     14      20.2529      0.00000
     15      21.6960      0.00000
     16      22.9215      0.00000
     17      23.0863      0.00000
     18      24.2285      0.00000
     19      27.5343      0.00000
     20      28.6002      0.00000

 k-point   160 :       0.3839   -0.0411    0.3839
  band No.  band energies     occupation 
      1      -3.7248      2.00000
      2      -0.9038      2.00000
      3       2.6750      2.00000
      4       2.7461      2.00000
      5       6.2144      0.00000
      6       6.9977      0.00000
      7      13.7689      0.00000
      8      13.8067      0.00000
      9      16.3273      0.00000
     10      16.5325      0.00000
     11      17.5377      0.00000
     12      17.5726      0.00000
     13      19.3885      0.00000
     14      20.0949      0.00000
     15      21.8929      0.00000
     16      22.9781      0.00000
     17      23.0848      0.00000
     18      24.2130      0.00000
     19      27.5246      0.00000
     20      28.4512      0.00000

 k-point   161 :       0.3921   -0.0329    0.3921
  band No.  band energies     occupation 
      1      -3.6773      2.00000
      2      -0.9641      2.00000
      3       2.6598      2.00000
      4       2.7565      2.00000
      5       6.1922      0.00000
      6       6.9353      0.00000
      7      13.8738      0.00000
      8      13.9188      0.00000
      9      16.3672      0.00000
     10      16.5840      0.00000
     11      17.5195      0.00000
     12      17.5683      0.00000
     13      19.3110      0.00000
     14      19.9431      0.00000
     15      22.0871      0.00000
     16      23.0432      0.00000
     17      23.0873      0.00000
     18      24.2079      0.00000
     19      27.5140      0.00000
     20      28.3085      0.00000

 k-point   162 :       0.4003   -0.0247    0.4003
  band No.  band energies     occupation 
      1      -3.6287      2.00000
      2      -1.0251      2.00000
      3       2.6459      2.00000
      4       2.7627      2.00000
      5       6.1745      0.00000
      6       6.8805      0.00000
      7      13.9711      0.00000
      8      14.0217      0.00000
      9      16.4142      0.00000
     10      16.6438      0.00000
     11      17.4933      0.00000
     12      17.5511      0.00000
     13      19.2418      0.00000
     14      19.7996      0.00000
     15      22.2741      0.00000
     16      23.0967      0.00000
     17      23.1160      0.00000
     18      24.2134      0.00000
     19      27.5024      0.00000
     20      28.1778      0.00000

 k-point   163 :       0.4086   -0.0164    0.4086
  band No.  band energies     occupation 
      1      -3.5790      2.00000
      2      -1.0867      2.00000
      3       2.6333      2.00000
      4       2.7641      2.00000
      5       6.1617      0.00000
      6       6.8333      0.00000
      7      14.0599      0.00000
      8      14.1150      0.00000
      9      16.4692      0.00000
     10      16.7120      0.00000
     11      17.4577      0.00000
     12      17.5199      0.00000
     13      19.1830      0.00000
     14      19.6661      0.00000
     15      22.4463      0.00000
     16      23.1197      0.00000
     17      23.1961      0.00000
     18      24.2299      0.00000
     19      27.4888      0.00000
     20      28.0271      0.00000

 k-point   164 :       0.4168   -0.0082    0.4168
  band No.  band energies     occupation 
      1      -3.5283      2.00000
      2      -1.1487      2.00000
      3       2.6221      2.00000
      4       2.7601      2.00000
      5       6.1543      0.00000
      6       6.7938      0.00000
      7      14.1394      0.00000
      8      14.1982      0.00000
      9      16.5332      0.00000
     10      16.7884      0.00000
     11      17.4113      0.00000
     12      17.4742      0.00000
     13      19.1359      0.00000
     14      19.5443      0.00000
     15      22.5903      0.00000
     16      23.1686      0.00000
     17      23.2830      0.00000
     18      24.2573      0.00000
     19      27.4689      0.00000
     20      27.8448      0.00000

 k-point   165 :       0.4332    0.0082    0.4332
  band No.  band energies     occupation 
      1      -3.4242      2.00000
      2      -1.2732      2.00000
      3       2.6039      2.00000
      4       2.7350      2.00000
      5       6.1552      0.00000
      6       6.7386      0.00000
      7      14.2688      0.00000
      8      14.3344      0.00000
      9      16.6890      0.00000
     10      16.9569      0.00000
     11      17.2824      0.00000
     12      17.3477      0.00000
     13      19.0797      0.00000
     14      19.3414      0.00000
     15      22.7458      0.00000
     16      23.3865      0.00000
     17      23.4755      0.00000
     18      24.3442      0.00000
     19      27.3160      0.00000
     20      27.6243      0.00000

 k-point   166 :       0.4414    0.0164    0.4414
  band No.  band energies     occupation 
      1      -3.3708      2.00000
      2      -1.3353      2.00000
      3       2.5968      2.00000
      4       2.7136      2.00000
      5       6.1628      0.00000
      6       6.7238      0.00000
      7      14.3182      0.00000
      8      14.3879      0.00000
      9      16.7799      0.00000
     10      17.0269      0.00000
     11      17.2005      0.00000
     12      17.2897      0.00000
     13      19.0701      0.00000
     14      19.2616      0.00000
     15      22.7683      0.00000
     16      23.5413      0.00000
     17      23.5806      0.00000
     18      24.4032      0.00000
     19      27.1306      0.00000
     20      27.4924      0.00000

 k-point   167 :       0.4497    0.0247    0.4497
  band No.  band energies     occupation 
      1      -3.3168      2.00000
      2      -1.3971      2.00000
      3       2.5911      2.00000
      4       2.6864      2.00000
      5       6.1743      0.00000
      6       6.7183      0.00000
      7      14.3577      0.00000
      8      14.4324      0.00000
      9      16.8733      0.00000
     10      17.0270      0.00000
     11      17.1131      0.00000
     12      17.2967      0.00000
     13      19.0717      0.00000
     14      19.1962      0.00000
     15      22.7724      0.00000
     16      23.6912      0.00000
     17      23.7051      0.00000
     18      24.4721      0.00000
     19      26.9154      0.00000
     20      27.4241      0.00000

 k-point   168 :       0.4579    0.0329    0.4579
  band No.  band energies     occupation 
      1      -3.2622      2.00000
      2      -1.4584      2.00000
      3       2.5868      2.00000
      4       2.6537      2.00000
      5       6.1883      0.00000
      6       6.7229      0.00000
      7      14.3877      0.00000
      8      14.4684      0.00000
      9      16.9208      0.00000
     10      16.9452      0.00000
     11      17.0692      0.00000
     12      17.3815      0.00000
     13      19.0831      0.00000
     14      19.1444      0.00000
     15      22.7663      0.00000
     16      23.8070      0.00000
     17      23.8660      0.00000
     18      24.5498      0.00000
     19      26.7085      0.00000
     20      27.2592      0.00000

 k-point   169 :       0.4661    0.0411    0.4661
  band No.  band energies     occupation 
      1      -3.2071      2.00000
      2      -1.5190      2.00000
      3       2.5838      2.00000
      4       2.6159      2.00000
      5       6.2038      0.00000
      6       6.7386      0.00000
      7      14.4087      0.00000
      8      14.4969      0.00000
      9      16.8292      0.00000
     10      16.8390      0.00000
     11      17.1531      0.00000
     12      17.4967      0.00000
     13      19.1034      0.00000
     14      19.1049      0.00000
     15      22.7548      0.00000
     16      23.9279      0.00000
     17      24.0158      0.00000
     18      24.6334      0.00000
     19      26.5136      0.00000
     20      27.1436      0.00000

 k-point   170 :       0.4743    0.0493    0.4743
  band No.  band energies     occupation 
      1      -3.1518      2.00000
      2      -1.5789      2.00000
      3       2.5733      2.00000
      4       2.5823      2.00000
      5       6.2196      0.00000
      6       6.7660      0.00000
      7      14.4214      0.00000
      8      14.5185      0.00000
      9      16.6980      0.00000
     10      16.7166      0.00000
     11      17.2769      0.00000
     12      17.6240      0.00000
     13      19.0761      0.00000
     14      19.1316      0.00000
     15      22.7403      0.00000
     16      24.0535      0.00000
     17      24.1482      0.00000
     18      24.7162      0.00000
     19      26.3414      0.00000
     20      27.0363      0.00000


--------------------------------------------------------------------------------------------------------


 soft charge-density along one line, spin component           1
         0         1         2         3         4         5         6         7         8         9
 total charge-density along one line
 
 pseudopotential strength for first ion, spin component:           1
 18.321  25.561   0.000   0.000   0.000   0.000   0.000   0.000
 25.561  35.666   0.000   0.000   0.000   0.000   0.000   0.000
  0.000   0.000   4.163   0.001   0.001   7.757   0.001   0.001
  0.000   0.000   0.001   4.163   0.001   0.001   7.757   0.001
  0.000   0.000   0.001   0.001   4.163   0.001   0.001   7.757
  0.000   0.000   7.757   0.001   0.001  14.464   0.002   0.002
  0.000   0.000   0.001   7.757   0.001   0.002  14.464   0.002
  0.000   0.000   0.001   0.001   7.757   0.002   0.002  14.464
 total augmentation occupancy for first ion, spin component:           1
  2.000   0.000   0.000   0.000   0.000   0.000   0.000   0.000
  0.000   0.000   0.000   0.000   0.000   0.000   0.000   0.000
  0.000   0.000   0.667   0.000   0.000   0.000   0.000   0.000
  0.000   0.000   0.000   0.667   0.000   0.000   0.000   0.000
  0.000   0.000   0.000   0.000   0.667   0.000   0.000   0.000
  0.000   0.000   0.000   0.000   0.000   0.000   0.000   0.000
  0.000   0.000   0.000   0.000   0.000   0.000   0.000   0.000
  0.000   0.000   0.000   0.000   0.000   0.000   0.000   0.000


------------------------ aborting loop because EDIFF is reached ----------------------------------------


 


 total charge     
 
# of ion       s       p       d       tot
------------------------------------------
    1        0.603   1.036   0.000   1.639
    2        0.632   1.215   0.000   1.847
--------------------------------------------------
tot          1.235   2.251   0.000   3.486
 
    CHARGE:  cpu time    0.0350: real time    0.0353
    FORLOC:  cpu time    0.0001: real time    0.0001
    FORNL :  cpu time    0.0760: real time    0.0766
    STRESS:  cpu time    0.1969: real time    0.1984
    FORCOR:  cpu time    0.0016: real time    0.0016
    FORHAR:  cpu time    0.0004: real time    0.0004
    OFIELD:  cpu time    0.0000: real time    0.0000

  FORCE on cell =-STRESS in cart. coord.  units (eV):
  Direction    XX          YY          ZZ          XY          YZ          ZX
  --------------------------------------------------------------------------------------
  Alpha Z     3.29295     3.29295     3.29295
  Ewald     -75.64660   -75.64660   -75.64660     0.00000     0.00000    -0.00000
  Hartree     6.98415     6.98415     6.98415     0.00000     0.00000     0.00000
  E(xc)     -25.55520   -25.55520   -25.55520     0.00175     0.00175     0.00175
  Local     -33.43711   -33.43711   -33.43711     0.00006     0.00006     0.00006
  n-local    77.73161    71.08305    77.73161    -0.06381    -0.06459    -0.15635
  augment   -10.27674   -10.27674   -10.27674     0.00769     0.00769     0.00769
  Kinetic    69.62305    61.68656    69.62305     0.37706     0.37706     0.42884
  Fock        0.00000     0.00000     0.00000     0.00000     0.00000     0.00000
  -------------------------------------------------------------------------------------
  Total       7.85442     7.85442     7.85442     0.00000     0.00000    -0.00000
  in kB     307.74860   307.74860   307.74860     0.00000     0.00000    -0.00000
  external pressure =      307.75 kB  Pullay stress =        0.00 kB


 VOLUME and BASIS-vectors are now :
 -----------------------------------------------------------------------------
  energy-cutoff  :      500.00
  volume of cell :       40.89
      direct lattice vectors                 reciprocal lattice vectors
     0.000000000  2.734426560  2.734426560    -0.182853695  0.182853695  0.182853695
     2.734426560  0.000000000  2.734426560     0.182853695 -0.182853695  0.182853695
     2.734426560  2.734426560  0.000000000     0.182853695  0.182853695 -0.182853695

  length of vectors
     3.867063126  3.867063126  3.867063126     0.316711890  0.316711890  0.316711890


 FORCES acting on ions
    electron-ion (+dipol)            ewald-force                    non-local-force                 convergence-correction
 -----------------------------------------------------------------------------------------------
   -.135E-05 -.135E-05 -.241E-05   0.570E-14 -.819E-14 0.437E-14   -.126E-15 -.147E-15 -.194E-15   -.519E-03 -.519E-03 -.519E-03
   0.135E-05 0.135E-05 0.241E-05   -.582E-14 0.817E-14 -.456E-14   0.161E-15 0.154E-15 0.166E-15   0.953E+00 0.953E+00 0.953E+00
 -----------------------------------------------------------------------------------------------
   0.244E-13 0.894E-13 0.914E-15   -.125E-15 -.147E-16 -.185E-15   0.351E-16 0.732E-17 -.279E-16   0.952E+00 0.952E+00 0.952E+00
 
 
 POSITION                                       TOTAL-FORCE (eV/Angst)
 -----------------------------------------------------------------------------------
      0.68361      0.68361      0.68361        -0.000000      0.000000     -0.000000
      4.78525      4.78525      4.78525         0.000000     -0.000000      0.000000
 -----------------------------------------------------------------------------------
    total drift:                                0.952181      0.952181      0.952181


--------------------------------------------------------------------------------------------------------



  FREE ENERGIE OF THE ION-ELECTRON SYSTEM (eV)
  ---------------------------------------------------
  free  energy   TOTEN  =        -4.07453558 eV

  energy  without entropy=       -4.07453529  energy(sigma->0) =       -4.07453543
 


--------------------------------------------------------------------------------------------------------


    POTLOK:  cpu time    0.0027: real time    0.0028


--------------------------------------------------------------------------------------------------------


 stress matrix after NEB project (eV)
      7.85442      0.00000     -0.00000
      0.00000      7.85442     -0.00000
     -0.00000      0.00000      7.85442
  FORCES: max atom, RMS     0.000000    0.000000
  FORCE total and by dimension    0.000000    0.000000
  Stress total and by dimension   13.604260    7.854423
     LOOP+:  cpu time   17.7340: real time   17.9680
    4ORBIT:  cpu time    0.0000: real time    0.0000
 


 total charge     
 
# of ion       s       p       d       tot
------------------------------------------
    1        0.603   1.036   0.000   1.639
    2        0.632   1.215   0.000   1.847
--------------------------------------------------
tot          1.235   2.251   0.000   3.486
 

 total amount of memory used by VASP MPI-rank0    35094. kBytes
=======================================================================

   base      :      30000. kBytes
   nonl-proj :        731. kBytes
   fftplans  :        127. kBytes
   grid      :        153. kBytes
   one-center:          3. kBytes
   wavefun   :       4080. kBytes
 
  
  
 General timing and accounting informations for this job:
 ========================================================
  
                  Total CPU time used (sec):       19.715
                            User time (sec):       18.874
                          System time (sec):        0.841
                         Elapsed time (sec):       20.349
  
                   Maximum memory used (kb):      143476.
                   Average memory used (kb):           0.
  
                          Minor page faults:        22402
                          Major page faults:            0
                 Voluntary context switches:          248
