    2    2    1    1
  0.2044406E+02  0.3866969E-09  0.3866969E-09  0.3866969E-09  0.5000000E-16
  1.000000000000000E-004
  CAR 
 bulk	                                   
    8  111   20
 
  0.0000000E+00  0.0000000E+00  0.0000000E+00  0.9009009E-02
   1       -6.198816
   2        5.615801
   3        5.615817
   4        5.615817
   5        8.172844
   6        8.172855
   7        8.172855
   8        8.749719
   9       13.325164
  10       13.325164
  11       13.493714
  12       16.798424
  13       16.798428
  14       16.798428
  15       20.890240
  16       28.470229
  17       28.470232
  18       28.470232
  19       29.551286
  20       29.551286
 
  0.2500000E-01  0.0000000E+00  0.2500000E-01  0.9009009E-02
   1       -6.188069
   2        5.538651
   3        5.570299
   4        5.570309
   5        8.146206
   6        8.231616
   7        8.231623
   8        8.825288
   9       13.237568
  10       13.337098
  11       13.541748
  12       16.817240
  13       16.817243
  14       16.859793
  15       20.968768
  16       28.295153
  17       28.295156
  18       28.484001
  19       29.411387
  20       29.447760
 
  0.5000000E-01  0.0000000E+00  0.5000000E-01  0.9009009E-02
   1       -6.155826
   2        5.327205
   3        5.445204
   4        5.445215
   5        8.069403
   6        8.396425
   7        8.396432
   8        9.028974
   9       13.002574
  10       13.372909
  11       13.682569
  12       16.873598
  13       16.873601
  14       17.021987
  15       21.201021
  16       27.855676
  17       27.855680
  18       28.525452
  19       29.033719
  20       29.183872
 
  0.7500000E-01  0.0000000E+00  0.7500000E-01  0.9009009E-02
   1       -6.102130
   2        5.022458
   3        5.265339
   4        5.265349
   5        7.950760
   6        8.642272
   7        8.642280
   8        9.309094
   9       12.683155
  10       13.432573
  11       13.907574
  12       16.967316
  13       16.967319
  14       17.241927
  15       21.576522
  16       27.280330
  17       27.280335
  18       28.500870
  19       28.595598
  20       28.829028
 
  0.1000000E+00  0.0000000E+00  0.1000000E+00  0.9009009E-02
   1       -6.027068
   2        4.660186
   3        5.054395
   4        5.054404
   5        7.801164
   6        8.945172
   7        8.945180
   8        9.604404
   9       12.352797
  10       13.516086
  11       14.205333
  12       17.098007
  13       17.098010
  14       17.487092
  15       22.077556
  16       26.643290
  17       26.643296
  18       27.880579
  19       28.423031
  20       28.696381
 
  0.1250000E+00  0.0000000E+00  0.1250000E+00  0.9009009E-02
   1       -5.930749
   2        4.263713
   3        4.829372
   4        4.829381
   5        7.631639
   6        9.287730
   7        9.287738
   8        9.836215
   9       12.100315
  10       13.623429
  11       14.563967
  12       17.264928
  13       17.264931
  14       17.743256
  15       22.681203
  16       25.981133
  17       25.981139
  18       27.214873
  19       27.986034
  20       28.830681
 
  0.1500000E+00  0.0000000E+00  0.1500000E+00  0.9009009E-02
   1       -5.813299
   2        3.846855
   3        4.601291
   4        4.601300
   5        7.451945
   6        9.658465
   7        9.658474
   8        9.902886
   9       12.034773
  10       13.754577
  11       14.972453
  12       17.466720
  13       17.466723
  14       18.008510
  15       23.362484
  16       25.313583
  17       25.313590
  18       26.528050
  19       27.529994
  20       29.003264
 
  0.1750000E+00  0.0000000E+00  0.1750000E+00  0.9009009E-02
   1       -5.674886
   2        3.417728
   3        4.377182
   4        4.377191
   5        7.270082
   6        9.758108
   7       10.049897
   8       10.049905
   9       12.207609
  10       13.909503
  11       15.420997
  12       17.700988
  13       17.700991
  14       18.286416
  15       24.096213
  16       24.653640
  17       24.653647
  18       25.834622
  19       27.063618
  20       29.221340
 
  0.2000000E+00  0.0000000E+00  0.2000000E+00  0.9009009E-02
   1       -5.515759
   2        2.981224
   3        4.161596
   4        4.161605
   5        7.092322
   6        9.469131
   7       10.457015
   8       10.457024
   9       12.554813
  10       14.088168
  11       15.900680
  12       17.963386
  13       17.963389
  14       18.582012
  15       24.011779
  16       24.011787
  17       24.856797
  18       25.143150
  19       26.594350
  20       29.495667
 
  0.2250000E+00  0.0000000E+00  0.2250000E+00  0.9009009E-02
   1       -5.336118
   2        2.540434
   3        3.957611
   4        3.957620
   5        6.923565
   6        9.118261
   7       10.876385
   8       10.876394
   9       12.995808
  10       14.290531
  11       16.402736
  12       18.246001
  13       18.246003
  14       18.900144
  15       23.399981
  16       23.399989
  17       24.459597
  18       25.616930
  19       26.129722
  20       29.841631
 
  0.2500000E+00  0.0000000E+00  0.2500000E+00  0.9009009E-02
   1       -5.136263
   2        2.097527
   3        3.767353
   4        3.767361
   5        6.767628
   6        8.751944
   7       11.305593
   8       11.305602
   9       13.484659
  10       14.516542
  11       16.917584
  12       18.533771
  13       18.533774
  14       19.245034
  15       22.835725
  16       22.835733
  17       23.787641
  18       25.678295
  19       26.347076
  20       30.278048
 
  0.2750000E+00  0.0000000E+00  0.2750000E+00  0.9009009E-02
   1       -4.916566
   2        1.654160
   3        3.592339
   4        3.592348
   5        6.627481
   6        8.392809
   7       11.742924
   8       11.742933
   9       13.998172
  10       14.766142
  11       17.433439
  12       18.797319
  13       18.797322
  14       19.620014
  15       22.349833
  16       22.349841
  17       23.129931
  18       25.250803
  19       27.018798
  20       30.821678
 
  0.3000000E+00  0.0000000E+00  0.3000000E+00  0.9009009E-02
   1       -4.677398
   2        1.211750
   3        3.433686
   4        3.433694
   5        6.505502
   6        8.052349
   7       12.187167
   8       12.187176
   9       14.523509
  10       15.039264
  11       17.934429
  12       18.981646
  13       18.981648
  14       20.027755
  15       21.997974
  16       21.997982
  17       22.488361
  18       24.861964
  19       27.612958
  20       30.784175
 
  0.3250000E+00  0.0000000E+00  0.3250000E+00  0.9009009E-02
   1       -4.419187
   2        0.771652
   3        3.292233
   4        3.292242
   5        6.403643
   6        7.736730
   7       12.637483
   8       12.637492
   9       15.052482
  10       15.335833
  11       18.398000
  12       19.008482
  13       19.008485
  14       20.470106
  15       21.858598
  16       21.858606
  17       21.864435
  18       24.532612
  19       28.126397
  20       30.192822
 
  0.3500000E+00  0.0000000E+00  0.3500000E+00  0.9009009E-02
   1       -4.142446
   2        0.335206
   3        3.168617
   4        3.168625
   5        6.323519
   6        7.449342
   7       13.093135
   8       13.093145
   9       15.579150
  10       15.655761
  11       18.792548
  12       18.834182
  13       18.834186
  14       20.947966
  15       21.259223
  16       21.975053
  17       21.975059
  18       24.291454
  19       28.568362
  20       29.519849
 
  0.3750000E+00  0.0000000E+00  0.3750000E+00  0.9009009E-02
   1       -3.847771
   2       -0.096213
   3        3.063324
   4        3.063332
   5        6.266526
   6        7.191995
   7       13.553278
   8       13.553288
   9       15.998946
  10       16.098705
  11       18.500374
  12       18.500379
  13       19.078670
  14       20.673586
  15       21.461023
  16       22.305281
  17       22.305287
  18       24.172606
  19       28.805120
  20       28.944575
 
  0.4000000E+00  0.0000000E+00  0.4000000E+00  0.9009009E-02
   1       -3.535775
   2       -0.521238
   3        2.976726
   4        2.976735
   5        6.233883
   6        6.965527
   7       14.016419
   8       14.016429
   9       16.365275
  10       16.606815
  11       18.078241
  12       18.078247
  13       19.219971
  14       20.108212
  15       22.007258
  16       22.777876
  17       22.777880
  18       24.201444
  19       28.086944
  20       28.601783
 
  0.4250000E+00  0.0000000E+00  0.4250000E+00  0.9009009E-02
   1       -3.207178
   2       -0.938507
   3        2.909102
   4        2.909110
   5        6.226693
   6        6.770163
   7       14.479226
   8       14.479236
   9       16.754612
  10       17.099123
  11       17.618702
  12       17.618708
  13       19.202103
  14       19.563606
  15       22.581948
  16       23.342899
  17       23.342903
  18       24.365902
  19       27.409868
  20       27.773460
 
  0.4500000E+00  0.0000000E+00  0.4500000E+00  0.9009009E-02
   1       -2.862790
   2       -1.346639
   3        2.860667
   4        2.860676
   5        6.245976
   6        6.605725
   7       14.932360
   8       14.932371
   9       17.156270
  10       17.156275
  11       17.166814
  12       17.570468
  13       19.040331
  14       19.040888
  15       23.175219
  16       23.971307
  17       23.971311
  18       24.575838
  19       26.860142
  20       26.966525
 
  0.4750000E+00  0.0000000E+00  0.4750000E+00  0.9009009E-02
   1       -2.503528
   2       -1.744327
   3        2.831553
   4        2.831562
   5        6.292668
   6        6.471772
   7       15.341700
   8       15.341713
   9       16.737505
  10       16.737508
  11       17.601706
  12       18.013810
  13       18.538714
  14       18.769044
  15       23.764773
  16       24.610356
  17       24.639597
  18       24.639601
  19       26.193740
  20       26.194386
 
  0.5000000E+00  0.0000000E+00  0.5000000E+00  0.9009009E-02
   1       -2.130348
   2       -2.130343
   3        2.821840
   4        2.821849
   5        6.367659
   6        6.367664
   7       15.552493
   8       15.552508
   9       16.523011
  10       16.523013
  11       18.059082
  12       18.059084
  13       18.418678
  14       18.418681
  15       24.292631
  16       24.292635
  17       25.172779
  18       25.172784
  19       25.626128
  20       25.626131
 
  0.5000000E+00  0.1666700E-01  0.5166670E+00  0.9009009E-02
   1       -2.128801
   2       -2.128796
   3        2.807550
   4        2.807559
   5        6.394067
   6        6.394071
   7       15.510219
   8       15.510233
   9       16.457175
  10       16.457178
  11       18.106562
  12       18.106564
  13       18.483970
  14       18.483972
  15       24.217163
  16       24.217166
  17       25.167208
  18       25.167213
  19       25.687691
  20       25.687693
 
  0.5000000E+00  0.3333300E-01  0.5333330E+00  0.9009009E-02
   1       -2.124213
   2       -2.124209
   3        2.766175
   4        2.766183
   5        6.471822
   6        6.471826
   7       15.371720
   8       15.371733
   9       16.323080
  10       16.323083
  11       18.173245
  12       18.173246
  13       18.703751
  14       18.703754
  15       24.035683
  16       24.035686
  17       25.121312
  18       25.121318
  19       25.863138
  20       25.863141
 
  0.5000000E+00  0.5000000E-01  0.5500000E+00  0.9009009E-02
   1       -2.116740
   2       -2.116735
   3        2.701745
   4        2.701753
   5        6.596996
   6        6.597001
   7       15.125812
   8       15.125823
   9       16.210007
  10       16.210012
  11       18.212942
  12       18.212944
  13       19.045709
  14       19.045712
  15       23.810811
  16       23.810814
  17       25.030473
  18       25.030478
  19       26.106985
  20       26.106987
 
  0.5000000E+00  0.6666700E-01  0.5666670E+00  0.9009009E-02
   1       -2.106634
   2       -2.106630
   3        2.619797
   4        2.619805
   5        6.764219
   6        6.764223
   7       14.794093
   8       14.794103
   9       16.141532
  10       16.141539
  11       18.241363
  12       18.241365
  13       19.448232
  14       19.448236
  15       23.575603
  16       23.575606
  17       24.915783
  18       24.915788
  19       26.373390
  20       26.373392
 
  0.5000000E+00  0.8333300E-01  0.5833330E+00  0.9009009E-02
   1       -2.094259
   2       -2.094255
   3        2.526270
   4        2.526277
   5        6.967753
   6        6.967756
   7       14.411582
   8       14.411591
   9       16.104123
  10       16.104130
  11       18.267714
  12       18.267715
  13       19.879411
  14       19.879415
  15       23.345413
  16       23.345416
  17       24.792671
  18       24.792677
  19       26.632046
  20       26.632049
 
  0.5000000E+00  0.1000000E+00  0.6000000E+00  0.9009009E-02
   1       -2.080062
   2       -2.080058
   3        2.426754
   4        2.426761
   5        7.202273
   6        7.202276
   7       14.002714
   8       14.002721
   9       16.083957
  10       16.083965
  11       18.294784
  12       18.294786
  13       20.323863
  14       20.323867
  15       23.128847
  16       23.128850
  17       24.670092
  18       24.670098
  19       26.857934
  20       26.857936
 
  0.5000000E+00  0.1166670E+00  0.6166670E+00  0.9009009E-02
   1       -2.064598
   2       -2.064593
   3        2.326158
   4        2.326165
   5        7.463127
   6        7.463130
   7       13.581167
   8       13.581174
   9       16.073224
  10       16.073232
  11       18.323081
  12       18.323083
  13       20.771544
  14       20.771548
  15       22.932824
  16       22.932827
  17       24.553355
  18       24.553362
  19       27.021295
  20       27.021297
 
  0.5000000E+00  0.1333330E+00  0.6333330E+00  0.9009009E-02
   1       -2.048489
   2       -2.048484
   3        2.228652
   4        2.228659
   5        7.746412
   6        7.746415
   7       13.154635
   8       13.154642
   9       16.067829
  10       16.067838
  11       18.352216
  12       18.352218
  13       21.211388
  14       21.211393
  15       22.767005
  16       22.767009
  17       24.445836
  18       24.445842
  19       27.080273
  20       27.080280
 
  0.5000000E+00  0.1500000E+00  0.6500000E+00  0.9009009E-02
   1       -2.032428
   2       -2.032424
   3        2.137673
   4        2.137680
   5        8.048883
   6        8.048886
   7       12.727784
   8       12.727790
   9       16.065527
  10       16.065536
  11       18.381334
  12       18.381336
  13       21.619756
  14       21.619761
  15       22.654174
  16       22.654177
  17       24.349776
  18       24.349783
  19       26.995766
  20       26.995773
 
  0.5000000E+00  0.1666670E+00  0.6666670E+00  0.9009009E-02
   1       -2.017148
   2       -2.017144
   3        2.056068
   4        2.056075
   5        8.367626
   6        8.367630
   7       12.303969
   8       12.303975
   9       16.064996
  10       16.065005
  11       18.409286
  12       18.409288
  13       21.923847
  14       21.923850
  15       22.666275
  16       22.666280
  17       24.266845
  18       24.266852
  19       26.773071
  20       26.773078
 
  0.5000000E+00  0.1833330E+00  0.6833330E+00  0.9009009E-02
   1       -2.003384
   2       -2.003380
   3        1.986172
   4        1.986178
   5        8.699729
   6        8.699733
   7       11.886148
   8       11.886153
   9       16.065400
  10       16.065409
  11       18.434777
  12       18.434779
  13       22.023386
  14       22.023388
  15       22.901893
  16       22.901899
  17       24.198461
  18       24.198468
  19       26.457478
  20       26.457484
 
  0.5000000E+00  0.2000000E+00  0.7000000E+00  0.9009009E-02
   1       -1.991819
   2       -1.991815
   3        1.929856
   4        1.929862
   5        9.041521
   6        9.041524
   7       11.477877
   8       11.477882
   9       16.066195
  10       16.066204
  11       18.456462
  12       18.456464
  13       22.002209
  14       22.002211
  15       23.272906
  16       23.272914
  17       24.146434
  18       24.146441
  19       26.092919
  20       26.092925
 
  0.5000000E+00  0.2166670E+00  0.7166670E+00  0.9009009E-02
   1       -1.983071
   2       -1.983066
   3        1.888579
   4        1.888585
   5        9.385780
   6        9.385784
   7       11.086232
   8       11.086237
   9       16.066998
  10       16.067007
  11       18.473048
  12       18.473050
  13       21.960370
  14       21.960372
  15       23.664553
  16       23.664561
  17       24.116190
  18       24.116197
  19       25.713255
  20       25.713260
 
  0.5000000E+00  0.2333330E+00  0.7333330E+00  0.9009009E-02
   1       -1.977617
   2       -1.977613
   3        1.863390
   4        1.863396
   5        9.708794
   6        9.708797
   7       10.734829
   8       10.734835
   9       16.067567
  10       16.067576
  11       18.483474
  12       18.483476
  13       21.929275
  14       21.929277
  15       23.965131
  16       23.965135
  17       24.154421
  18       24.154425
  19       25.365255
  20       25.365258
 
  0.5000000E+00  0.2500000E+00  0.7500000E+00  0.9009009E-02
   1       -1.975765
   2       -1.975761
   3        1.854923
   4        1.854929
   5        9.886267
   6        9.886269
   7       10.547901
   8       10.547907
   9       16.067771
  10       16.067781
  11       18.487031
  12       18.487033
  13       21.918183
  14       21.918185
  15       24.019417
  16       24.019422
  17       24.272086
  18       24.272097
  19       25.190326
  20       25.190328
 
  0.5000000E+00  0.2625000E+00  0.7375000E+00  0.9009009E-02
   1       -2.136821
   2       -1.817499
   3        1.745501
   4        1.983325
   5        9.744503
   6        9.951892
   7       10.477688
   8       10.716473
   9       15.735364
  10       16.322222
  11       18.213636
  12       18.827813
  13       21.598303
  14       22.175986
  15       23.707544
  16       24.045705
  17       24.315771
  18       24.564786
  19       24.972168
  20       25.425653
 
  0.5000000E+00  0.2750000E+00  0.7250000E+00  0.9009009E-02
   1       -2.297800
   2       -1.665569
   3        1.659098
   4        2.127164
   5        9.587527
   6        9.879383
   7       10.567574
   8       10.922633
   9       15.336618
  10       16.499374
  11       18.001043
  12       19.225580
  13       21.226317
  14       22.382018
  15       23.430981
  16       23.873024
  17       24.351211
  18       24.892836
  19       25.029129
  20       25.641243
 
  0.5000000E+00  0.2875000E+00  0.7125000E+00  0.9009009E-02
   1       -2.456425
   2       -1.524152
   3        1.600272
   4        2.283363
   5        9.434530
   6        9.732980
   7       10.753029
   8       11.147329
   9       14.889856
  10       16.609491
  11       17.834587
  12       19.639098
  13       20.847763
  14       22.551588
  15       23.163752
  16       23.774588
  17       24.104476
  18       25.085759
  19       25.527937
  20       25.829089
 
  0.5000000E+00  0.3000000E+00  0.7000000E+00  0.9009009E-02
   1       -2.610906
   2       -1.397789
   3        1.573828
   4        2.449162
   5        9.291942
   6        9.568300
   7       10.978078
   8       11.384188
   9       14.412708
  10       16.664981
  11       17.699803
  12       19.882954
  13       20.652430
  14       22.689736
  15       22.888966
  16       23.753733
  17       23.783219
  18       25.313335
  19       25.986868
  20       26.068280
 
  0.5000000E+00  0.3125000E+00  0.6875000E+00  0.9009009E-02
   1       -2.759870
   2       -1.290849
   3        1.584234
   4        2.621994
   5        9.162651
   6        9.402147
   7       11.225436
   8       11.630249
   9       13.918841
  10       16.675337
  11       17.585992
  12       19.654722
  13       20.941995
  14       22.609547
  15       22.765320
  16       23.481748
  17       23.800044
  18       25.539075
  19       26.114067
  20       26.579585
 
  0.5000000E+00  0.3250000E+00  0.6750000E+00  0.9009009E-02
   1       -2.902191
   2       -1.206590
   3        1.634794
   4        2.799410
   5        9.048360
   6        9.239632
   7       11.489352
   8       11.883540
   9       13.418130
  10       16.645752
  11       17.486276
  12       19.258409
  13       21.391751
  14       22.351290
  15       22.652717
  16       23.344775
  17       23.903824
  18       25.747854
  19       26.211351
  20       26.957354
 
  0.5000000E+00  0.3375000E+00  0.6625000E+00  0.9009009E-02
   1       -3.037010
   2       -1.146368
   3        1.726745
   4        2.978969
   5        8.950310
   6        9.082389
   7       11.767131
   8       12.142216
   9       12.917958
  10       16.577303
  11       17.396592
  12       18.854772
  13       21.674932
  14       22.283616
  15       22.324070
  16       23.409157
  17       24.060789
  18       25.927041
  19       26.280510
  20       27.132373
 
  0.5000000E+00  0.3500000E+00  0.6500000E+00  0.9009009E-02
   1       -3.163652
   2       -1.109236
   3        1.858860
   4        3.158191
   5        8.869492
   6        8.930614
   7       12.054587
   8       12.404082
   9       12.426716
  10       16.468062
  11       17.314649
  12       18.481646
  13       21.517037
  14       21.912164
  15       22.643360
  16       23.546816
  17       24.272467
  18       26.064366
  19       26.324452
  20       27.208040
 
  0.5000000E+00  0.3625000E+00  0.6375000E+00  0.9009009E-02
   1       -3.281555
   2       -1.092259
   3        2.027739
   4        3.334540
   5        8.783645
   6        8.806713
   7       11.930151
   8       12.369962
   9       12.666115
  10       16.316011
  11       17.239279
  12       18.157412
  13       21.223753
  14       21.470620
  15       23.101720
  16       23.706651
  17       24.545505
  18       26.154001
  19       26.347462
  20       27.280316
 
  0.5000000E+00  0.3750000E+00  0.6250000E+00  0.9009009E-02
   1       -3.390286
   2       -1.091348
   3        2.228578
   4        3.505400
   5        8.640013
   6        8.762536
   7       11.463194
   8       12.682441
   9       12.923705
  10       16.124360
  11       17.169945
  12       17.891239
  13       20.903492
  14       21.015371
  15       23.531118
  16       23.873113
  17       24.886504
  18       26.203579
  19       26.355044
  20       27.372796
 
  0.5000000E+00  0.3875000E+00  0.6125000E+00  0.9009009E-02
   1       -3.489487
   2       -1.102124
   3        2.455951
   4        3.668147
   5        8.497294
   6        8.737149
   7       11.013749
   8       13.008899
   9       13.169294
  10       15.907185
  11       17.106491
  12       17.682080
  13       20.553439
  14       20.573998
  15       23.906124
  16       24.038103
  17       25.290408
  18       26.231127
  19       26.353776
  20       27.474801
 
  0.5000000E+00  0.4000000E+00  0.6000000E+00  0.9009009E-02
   1       -3.578871
   2       -1.120537
   3        2.704305
   4        3.820215
   5        8.351897
   6        8.730198
   7       10.590435
   8       13.346715
   9       13.390053
  10       15.691046
  11       17.048975
  12       17.520472
  13       20.088943
  14       20.241770
  15       24.195087
  16       24.228521
  17       25.733239
  18       26.255601
  19       26.351602
  20       27.567194
 
  0.5000000E+00  0.4125000E+00  0.5875000E+00  0.9009009E-02
   1       -3.658202
   2       -1.143145
   3        2.968012
   4        3.959198
   5        8.198916
   6        8.740529
   7       10.201576
   8       13.564733
   9       13.695173
  10       15.513078
  11       16.997558
  12       17.393887
  13       19.624798
  14       19.911464
  15       24.337994
  16       24.508528
  17       26.175782
  18       26.291492
  19       26.361416
  20       27.633451
 
  0.5000000E+00  0.4250000E+00  0.5750000E+00  0.9009009E-02
   1       -3.727294
   2       -1.167185
   3        3.241062
   4        4.082972
   5        8.032719
   6        8.765942
   7        9.856876
   8       13.664855
   9       14.053656
  10       15.415649
  11       16.952439
  12       17.290876
  13       19.163321
  14       19.588049
  15       24.461494
  16       24.752042
  17       26.348185
  18       26.367470
  19       26.605873
  20       27.663100
 
  0.5000000E+00  0.4375000E+00  0.5625000E+00  0.9009009E-02
   1       -3.785990
   2       -1.190502
   3        3.516388
   4        4.189792
   5        7.849157
   6        8.802975
   7        9.566023
   8       13.672698
   9       14.421383
  10       15.426988
  11       16.913839
  12       17.202169
  13       18.706601
  14       19.277870
  15       24.562230
  16       24.957815
  17       26.419469
  18       26.430383
  19       26.947682
  20       27.652320
 
  0.5000000E+00  0.4500000E+00  0.5500000E+00  0.9009009E-02
   1       -3.834170
   2       -1.211470
   3        3.784733
   4        4.278350
   5        7.649834
   6        8.846786
   7        9.335478
   8       13.605554
   9       14.797099
  10       15.536671
  11       16.881944
  12       17.120017
  13       18.256898
  14       18.989782
  15       24.639237
  16       25.120654
  17       26.505291
  18       26.538037
  19       27.190931
  20       27.602736
 
  0.5000000E+00  0.4625000E+00  0.5375000E+00  0.9009009E-02
   1       -3.871734
   2       -1.228890
   3        4.032934
   4        4.347773
   5        7.446601
   6        8.891336
   7        9.165662
   8       13.504963
   9       15.178341
  10       15.705601
  11       16.856907
  12       17.037809
  13       17.817441
  14       18.736321
  15       24.694106
  16       25.237627
  17       26.629517
  18       26.667140
  19       27.317624
  20       27.519463
 
  0.5000000E+00  0.4750000E+00  0.5250000E+00  0.9009009E-02
   1       -3.898614
   2       -1.241898
   3        4.241818
   4        4.397563
   5        7.262991
   6        8.929917
   7        9.051603
   8       13.408818
   9       15.558758
  10       15.890734
  11       16.838795
  12       16.952264
  13       17.395197
  14       18.534194
  15       24.729962
  16       25.312207
  17       26.783915
  18       26.810736
  19       27.334417
  20       27.409449
 
  0.5000000E+00  0.4875000E+00  0.5125000E+00  0.9009009E-02
   1       -3.914762
   2       -1.249926
   3        4.385523
   4        4.427486
   5        7.131178
   6        8.956189
   7        8.986583
   8       13.342062
   9       15.914421
  10       16.046076
  11       16.827019
  12       16.872820
  13       17.015160
  14       18.402360
  15       24.749969
  16       25.352236
  17       26.949064
  18       26.958666
  19       27.267119
  20       27.282158
 
  0.5000000E+00  0.5000000E+00  0.5000000E+00  0.9009009E-02
   1       -3.920148
   2       -1.252637
   3        4.437468
   4        4.437468
   5        7.082612
   6        8.965517
   7        8.965517
   8       13.318356
   9       16.111104
  10       16.111104
  11       16.797487
  12       16.835927
  13       16.835927
  14       18.356409
  15       24.756366
  16       25.364701
  17       27.064010
  18       27.064010
  19       27.183796
  20       27.183796
 
  0.4750000E+00  0.4750000E+00  0.4750000E+00  0.9009009E-02
   1       -3.954327
   2       -1.203247
   3        4.441909
   4        4.441909
   5        7.087803
   6        8.970437
   7        8.970437
   8       13.325935
   9       15.851909
  10       15.851909
  11       16.659538
  12       17.113855
  13       17.113855
  14       18.487961
  15       24.246513
  16       25.900873
  17       26.497098
  18       26.497098
  19       27.714767
  20       27.714767
 
  0.4500000E+00  0.4500000E+00  0.4500000E+00  0.9009009E-02
   1       -4.049738
   2       -1.062208
   3        4.455226
   4        4.455226
   5        7.103300
   6        8.984827
   7        8.984827
   8       13.347894
   9       15.418724
  10       15.418724
  11       16.336838
  12       17.602950
  13       17.602950
  14       18.786405
  15       23.557812
  16       25.858595
  17       25.858595
  18       26.673018
  19       28.239465
  20       28.239465
 
  0.4250000E+00  0.4250000E+00  0.4250000E+00  0.9009009E-02
   1       -4.189960
   2       -0.846047
   3        4.477393
   4        4.477393
   5        7.129053
   6        9.007552
   7        9.007552
   8       13.381639
   9       14.976854
  10       14.976854
  11       15.942121
  12       18.136901
  13       18.136901
  14       19.120109
  15       22.915973
  16       25.218211
  17       25.218211
  18       27.473559
  19       28.675578
  20       28.675578
 
  0.4000000E+00  0.4000000E+00  0.4000000E+00  0.9009009E-02
   1       -4.357723
   2       -0.572213
   3        4.508377
   4        4.508377
   5        7.164946
   6        9.036640
   7        9.036640
   8       13.421292
   9       14.552594
  10       14.552594
  11       15.528981
  12       18.686865
  13       18.686865
  14       19.389685
  15       22.388397
  16       24.589889
  17       24.589889
  18       28.262913
  19       29.002982
  20       29.003201
 
  0.3750000E+00  0.3750000E+00  0.3750000E+00  0.9009009E-02
   1       -4.539425
   2       -0.254635
   3        4.548106
   4        4.548106
   5        7.210798
   6        9.069150
   7        9.069150
   8       13.453871
   9       14.155278
  10       14.155278
  11       15.128337
  12       19.237087
  13       19.237087
  14       19.478859
  15       22.077072
  16       23.988839
  17       23.988839
  18       28.378424
  19       29.218711
  20       29.221546
 
  0.3500000E+00  0.3500000E+00  0.3500000E+00  0.9009009E-02
   1       -4.725513
   2        0.096828
   3        4.596461
   4        4.596461
   5        7.266339
   6        9.101046
   7        9.101046
   8       13.449932
   9       13.791456
  10       13.791456
  11       14.776426
  12       19.296230
  13       19.764399