       N       E                     dE             d eps       ncg     rms          rms(c)
DAV:   1    -0.787844578140E+01   -0.78784E+01   -0.26812E+02  6540   0.252E+01
DAV:   2    -0.888919382489E+01   -0.10107E+01   -0.99651E+00  5376   0.794E+00
DAV:   3    -0.889649244897E+01   -0.72986E-02   -0.72967E-02  5404   0.866E-01
DAV:   4    -0.889652495555E+01   -0.32507E-04   -0.32506E-04  5508   0.628E-02
DAV:   5    -0.889652519019E+01   -0.23463E-06   -0.23407E-06  5432   0.543E-03
DAV:   6    -0.889652519218E+01   -0.19911E-08   -0.20446E-08  4992   0.489E-04
DAV:   7    -0.889652519153E+01    0.64585E-09   -0.66150E-10  4088   0.938E-05
DAV:   8    -0.889652519223E+01   -0.70224E-09   -0.10775E-10  3204   0.363E-05
   1 F= -.88965252E+01 E0= -.88965250E+01  d E =-.361403E-06
