 vasp.5.3.3 18Dez12 (build Apr 06 2015 16:58:45) complex                        
  
 executed on             LinuxIFC date 2015.04.20  10:13:10
 running on   16 total cores
 distrk:  each k-point on   16 cores,    1 groups
 distr:  one band on NCORES_PER_BAND=  16 cores,    1 groups


--------------------------------------------------------------------------------------------------------


 INCAR:
 POTCAR:    PAW_PBE Si 05Jan2001                  

 ----------------------------------------------------------------------------- 
|                                                                             |
|           W    W    AA    RRRRR   N    N  II  N    N   GGGG   !!!           |
|           W    W   A  A   R    R  NN   N  II  NN   N  G    G  !!!           |
|           W    W  A    A  R    R  N N  N  II  N N  N  G       !!!           |
|           W WW W  AAAAAA  RRRRR   N  N N  II  N  N N  G  GGG   !            |
|           WW  WW  A    A  R   R   N   NN  II  N   NN  G    G                |
|           W    W  A    A  R    R  N    N  II  N    N   GGGG   !!!           |
|                                                                             |
|      For optimal performance we recommend that you set                      |
|        NPAR = 4 - approx SQRT( number of cores)                             |
|      (number of cores/NPAR must be integer)                                 |
|      This setting will greatly improve the performance of VASP for DFT.     |
|      The default NPAR=number of cores might be grossly inefficient          |
|      on modern multi-core architectures or massively parallel machines.     |
|      Do your own testing.                                                   |
|      Unfortunately you need to use the default for hybrid, GW and RPA       |
|      calculations.                                                          |
|                                                                             |
 ----------------------------------------------------------------------------- 

 POTCAR:    PAW_PBE Si 05Jan2001                  
   VRHFIN =Si: s2p2                                                             
   LEXCH  = PE                                                                  
   EATOM  =   103.0669 eV,    7.5752 Ry                                         
                                                                                
   TITEL  = PAW_PBE Si 05Jan2001                                                
   LULTRA =        F    use ultrasoft PP ?                                      
   IUNSCR =        1    unscreen: 0-lin 1-nonlin 2-no                           
   RPACOR =    1.500    partial core radius                                     
   POMASS =   28.085; ZVAL   =    4.000    mass and valenz                      
   RCORE  =    1.900    outmost cutoff radius                                   
   RWIGS  =    2.480; RWIGS  =    1.312    wigner-seitz radius (au A)           
   ENMAX  =  245.345; ENMIN  =  184.009 eV                                      
   ICORE  =        2    local potential                                         
   LCOR   =        T    correct aug charges                                     
   LPAW   =        T    paw PP                                                  
   EAUG   =  322.069                                                            
   DEXC   =    0.000                                                            
   RMAX   =    1.950    core radius for proj-oper                               
   RAUG   =    1.300    factor for augmentation sphere                          
   RDEP   =    1.993    radius for radial grids                                 
   RDEPT  =    1.837    core radius for aug-charge                              
                                                                                
   Atomic configuration                                                         
    6 entries                                                                   
     n  l   j            E        occ.                                          
     1  0  0.50     -1785.8828   2.0000                                         
     2  0  0.50      -139.4969   2.0000                                         
     2  1  1.50       -95.5546   6.0000                                         
     3  0  0.50       -10.8127   2.0000                                         
     3  1  0.50        -4.0811   2.0000                                         
     3  2  1.50        -4.0817   0.0000                                         
   Description                                                                  
     l       E           TYP  RCUT    TYP  RCUT                                 
     0    -10.8127223     23  1.900                                             
     0     -7.6451159     23  1.900                                             
     1     -4.0811372     23  1.900                                             
     1      2.4879257     23  1.900                                             
     2     -4.0817478      7  1.900                                             
  local pseudopotential read in
  partial core-charges read in
  partial kinetic energy density read in
  atomic valenz-charges read in
  non local Contribution for L=           0  read in
    real space projection operators read in
  non local Contribution for L=           0  read in
    real space projection operators read in
  non local Contribution for L=           1  read in
    real space projection operators read in
  non local Contribution for L=           1  read in
    real space projection operators read in
    PAW grid and wavefunctions read in
 
   number of l-projection  operators is LMAX  =           4
   number of lm-projection operators is LMMAX =           8
 
  PAW_PBE Si 05Jan2001                  :
 energy of atom  1       EATOM= -103.0669
 kinetic energy error for atom=    0.0006 (will be added to EATOM!!)
 
 
 POSCAR: Si                                      
  positions in direct lattice
  No initial velocities read in
 exchange correlation table for  LEXCH =        8
   RHO(1)=    0.500       N(1)  =     2000
   RHO(2)=  100.500       N(2)  =     4000
 


--------------------------------------------------------------------------------------------------------


 ion  position               nearest neighbor table
   1  0.000  0.000  0.000-   2 2.37   2 2.37   2 2.37   2 2.37
   2  0.250  0.250  0.250-   1 2.37   1 2.37   1 2.37   1 2.37
 
  LATTYP: Found a face centered cubic cell.
 ALAT       =     5.4687200000
  
  Lattice vectors:
  
 A1 = (   0.0000000000,   2.7343600000,   2.7343600000)
 A2 = (   2.7343600000,   0.0000000000,   2.7343600000)
 A3 = (   2.7343600000,   2.7343600000,   0.0000000000)


Analysis of symmetry for initial positions (statically):
=====================================================================
 Subroutine PRICEL returns:
 Original cell was already a primitive cell.
 

 Routine SETGRP: Setting up the symmetry group for a 
 face centered cubic supercell.


 Subroutine GETGRP returns: Found 48 space group operations
 (whereof 24 operations were pure point group operations)
 out of a pool of 48 trial point group operations.


The static configuration has the point symmetry T_d .
 The point group associated with its full space group is O_h .


Analysis of symmetry for dynamics (positions and initial velocities):
=====================================================================
 Subroutine PRICEL returns:
 Original cell was already a primitive cell.
 

 Routine SETGRP: Setting up the symmetry group for a 
 face centered cubic supercell.


 Subroutine GETGRP returns: Found 48 space group operations
 (whereof 24 operations were pure point group operations)
 out of a pool of 48 trial point group operations.


The dynamic configuration has the point symmetry T_d .
 The point group associated with its full space group is O_h .


 irot  :   1
 --------------------------------------------------------------------
 isymop:   1   0   0
           0   1   0
           0   0   1

 gtrans:     0.0000000     0.0000000     0.0000000

 ptrans:     0.0000000     0.0000000     0.0000000
 rotmap:
 (   1->   1)  (   2->   2) 


 irot  :   2
 --------------------------------------------------------------------
 isymop:   0   0   1
           1   0   0
           0   1   0

 gtrans:     0.0000000     0.0000000     0.0000000

 ptrans:     0.0000000     0.0000000     0.0000000
 rotmap:
 (   1->   1)  (   2->   2) 


 irot  :   3
 --------------------------------------------------------------------
 isymop:   0   1   0
           0   0   1
           1   0   0

 gtrans:     0.0000000     0.0000000     0.0000000

 ptrans:     0.0000000     0.0000000     0.0000000
 rotmap:
 (   1->   1)  (   2->   2) 


 irot  :   4
 --------------------------------------------------------------------
 isymop:  -1  -1  -1
           0   0   1
           1   0   0

 gtrans:     0.0000000     0.0000000     0.0000000

 ptrans:     0.0000000     0.0000000     0.0000000
 rotmap:
 (   1->   1)  (   2->   2) 


 irot  :   5
 --------------------------------------------------------------------
 isymop:  -1  -1  -1
           0   1   0
           0   0   1

 gtrans:     0.0000000     0.0000000     0.0000000

 ptrans:     0.0000000     0.0000000     0.0000000
 rotmap:
 (   1->   1)  (   2->   2) 


 irot  :   6
 --------------------------------------------------------------------
 isymop:  -1  -1  -1
           1   0   0
           0   1   0

 gtrans:     0.0000000     0.0000000     0.0000000

 ptrans:     0.0000000     0.0000000     0.0000000
 rotmap:
 (   1->   1)  (   2->   2) 


 irot  :   7
 --------------------------------------------------------------------
 isymop:   0   1   0
           1   0   0
          -1  -1  -1

 gtrans:     0.0000000     0.0000000     0.0000000

 ptrans:     0.0000000     0.0000000     0.0000000
 rotmap:
 (   1->   1)  (   2->   2) 


 irot  :   8
 --------------------------------------------------------------------
 isymop:   1   0   0
           0   0   1
          -1  -1  -1

 gtrans:     0.0000000     0.0000000     0.0000000

 ptrans:     0.0000000     0.0000000     0.0000000
 rotmap:
 (   1->   1)  (   2->   2) 


 irot  :   9
 --------------------------------------------------------------------
 isymop:   0   0   1
           0   1   0
          -1  -1  -1

 gtrans:     0.0000000     0.0000000     0.0000000

 ptrans:     0.0000000     0.0000000     0.0000000
 rotmap:
 (   1->   1)  (   2->   2) 


 irot  :  10
 --------------------------------------------------------------------
 isymop:   0   0   1
          -1  -1  -1
           0   1   0

 gtrans:     0.0000000     0.0000000     0.0000000

 ptrans:     0.0000000     0.0000000     0.0000000
 rotmap:
 (   1->   1)  (   2->   2) 


 irot  :  11
 --------------------------------------------------------------------
 isymop:   0   1   0
          -1  -1  -1
           1   0   0

 gtrans:     0.0000000     0.0000000     0.0000000

 ptrans:     0.0000000     0.0000000     0.0000000
 rotmap:
 (   1->   1)  (   2->   2) 


 irot  :  12
 --------------------------------------------------------------------
 isymop:   1   0   0
          -1  -1  -1
           0   0   1

 gtrans:     0.0000000     0.0000000     0.0000000

 ptrans:     0.0000000     0.0000000     0.0000000
 rotmap:
 (   1->   1)  (   2->   2) 


 irot  :  13
 --------------------------------------------------------------------
 isymop:  -1  -1  -1
           0   1   0
           1   0   0

 gtrans:     0.0000000     0.0000000     0.0000000

 ptrans:     0.0000000     0.0000000     0.0000000
 rotmap:
 (   1->   1)  (   2->   2) 


 irot  :  14
 --------------------------------------------------------------------
 isymop:  -1  -1  -1
           1   0   0
           0   0   1

 gtrans:     0.0000000     0.0000000     0.0000000

 ptrans:     0.0000000     0.0000000     0.0000000
 rotmap:
 (   1->   1)  (   2->   2) 


 irot  :  15
 --------------------------------------------------------------------
 isymop:  -1  -1  -1
           0   0   1
           0   1   0

 gtrans:     0.0000000     0.0000000     0.0000000

 ptrans:     0.0000000     0.0000000     0.0000000
 rotmap:
 (   1->   1)  (   2->   2) 


 irot  :  16
 --------------------------------------------------------------------
 isymop:   0   1   0
           0   0   1
          -1  -1  -1

 gtrans:     0.0000000     0.0000000     0.0000000

 ptrans:     0.0000000     0.0000000     0.0000000
 rotmap:
 (   1->   1)  (   2->   2) 


 irot  :  17
 --------------------------------------------------------------------
 isymop:   1   0   0
           0   1   0
          -1  -1  -1

 gtrans:     0.0000000     0.0000000     0.0000000

 ptrans:     0.0000000     0.0000000     0.0000000
 rotmap:
 (   1->   1)  (   2->   2) 


 irot  :  18
 --------------------------------------------------------------------
 isymop:   0   0   1
           1   0   0
          -1  -1  -1

 gtrans:     0.0000000     0.0000000     0.0000000

 ptrans:     0.0000000     0.0000000     0.0000000
 rotmap:
 (   1->   1)  (   2->   2) 


 irot  :  19
 --------------------------------------------------------------------
 isymop:   1   0   0
          -1  -1  -1
           0   1   0

 gtrans:     0.0000000     0.0000000     0.0000000

 ptrans:     0.0000000     0.0000000     0.0000000
 rotmap:
 (   1->   1)  (   2->   2) 


 irot  :  20
 --------------------------------------------------------------------
 isymop:   0   0   1
          -1  -1  -1
           1   0   0

 gtrans:     0.0000000     0.0000000     0.0000000

 ptrans:     0.0000000     0.0000000     0.0000000
 rotmap:
 (   1->   1)  (   2->   2) 


 irot  :  21
 --------------------------------------------------------------------
 isymop:   0   1   0
          -1  -1  -1
           0   0   1

 gtrans:     0.0000000     0.0000000     0.0000000

 ptrans:     0.0000000     0.0000000     0.0000000
 rotmap:
 (   1->   1)  (   2->   2) 


 irot  :  22
 --------------------------------------------------------------------
 isymop:   1   0   0
           0   0   1
           0   1   0

 gtrans:     0.0000000     0.0000000     0.0000000

 ptrans:     0.0000000     0.0000000     0.0000000
 rotmap:
 (   1->   1)  (   2->   2) 


 irot  :  23
 --------------------------------------------------------------------
 isymop:   0   1   0
           1   0   0
           0   0   1

 gtrans:     0.0000000     0.0000000     0.0000000

 ptrans:     0.0000000     0.0000000     0.0000000
 rotmap:
 (   1->   1)  (   2->   2) 


 irot  :  24
 --------------------------------------------------------------------
 isymop:   0   0   1
           0   1   0
           1   0   0

 gtrans:     0.0000000     0.0000000     0.0000000

 ptrans:     0.0000000     0.0000000     0.0000000
 rotmap:
 (   1->   1)  (   2->   2) 


 irot  :  25
 --------------------------------------------------------------------
 isymop:  -1   0   0
           0  -1   0
           0   0  -1

 gtrans:     0.2500000     0.2500000     0.2500000

 ptrans:     0.0000000     0.0000000     0.0000000
 rotmap:
 (   1->   2)  (   2->   1) 


 irot  :  26
 --------------------------------------------------------------------
 isymop:   0   0  -1
          -1   0   0
           0  -1   0

 gtrans:     0.2500000     0.2500000     0.2500000

 ptrans:     0.0000000     0.0000000     0.0000000
 rotmap:
 (   1->   2)  (   2->   1) 


 irot  :  27
 --------------------------------------------------------------------
 isymop:   0  -1   0
           0   0  -1
          -1   0   0

 gtrans:     0.2500000     0.2500000     0.2500000

 ptrans:     0.0000000     0.0000000     0.0000000
 rotmap:
 (   1->   2)  (   2->   1) 


 irot  :  28
 --------------------------------------------------------------------
 isymop:   1   1   1
           0   0  -1
          -1   0   0

 gtrans:     0.2500000     0.2500000     0.2500000

 ptrans:     0.0000000     0.0000000     0.0000000
 rotmap:
 (   1->   2)  (   2->   1) 


 irot  :  29
 --------------------------------------------------------------------
 isymop:   1   1   1
           0  -1   0
           0   0  -1

 gtrans:     0.2500000     0.2500000     0.2500000

 ptrans:     0.0000000     0.0000000     0.0000000
 rotmap:
 (   1->   2)  (   2->   1) 


 irot  :  30
 --------------------------------------------------------------------
 isymop:   1   1   1
          -1   0   0
           0  -1   0

 gtrans:     0.2500000     0.2500000     0.2500000

 ptrans:     0.0000000     0.0000000     0.0000000
 rotmap:
 (   1->   2)  (   2->   1) 


 irot  :  31
 --------------------------------------------------------------------
 isymop:   0  -1   0
          -1   0   0
           1   1   1

 gtrans:     0.2500000     0.2500000     0.2500000

 ptrans:     0.0000000     0.0000000     0.0000000
 rotmap:
 (   1->   2)  (   2->   1) 


 irot  :  32
 --------------------------------------------------------------------
 isymop:  -1   0   0
           0   0  -1
           1   1   1

 gtrans:     0.2500000     0.2500000     0.2500000

 ptrans:     0.0000000     0.0000000     0.0000000
 rotmap:
 (   1->   2)  (   2->   1) 


 irot  :  33
 --------------------------------------------------------------------
 isymop:   0   0  -1
           0  -1   0
           1   1   1

 gtrans:     0.2500000     0.2500000     0.2500000

 ptrans:     0.0000000     0.0000000     0.0000000
 rotmap:
 (   1->   2)  (   2->   1) 


 irot  :  34
 --------------------------------------------------------------------
 isymop:   0   0  -1
           1   1   1
           0  -1   0

 gtrans:     0.2500000     0.2500000     0.2500000

 ptrans:     0.0000000     0.0000000     0.0000000
 rotmap:
 (   1->   2)  (   2->   1) 


 irot  :  35
 --------------------------------------------------------------------
 isymop:   0  -1   0
           1   1   1
          -1   0   0

 gtrans:     0.2500000     0.2500000     0.2500000

 ptrans:     0.0000000     0.0000000     0.0000000
 rotmap:
 (   1->   2)  (   2->   1) 


 irot  :  36
 --------------------------------------------------------------------
 isymop:  -1   0   0
           1   1   1
           0   0  -1

 gtrans:     0.2500000     0.2500000     0.2500000

 ptrans:     0.0000000     0.0000000     0.0000000
 rotmap:
 (   1->   2)  (   2->   1) 


 irot  :  37
 --------------------------------------------------------------------
 isymop:   1   1   1
           0  -1   0
          -1   0   0

 gtrans:     0.2500000     0.2500000     0.2500000

 ptrans:     0.0000000     0.0000000     0.0000000
 rotmap:
 (   1->   2)  (   2->   1) 


 irot  :  38
 --------------------------------------------------------------------
 isymop:   1   1   1
          -1   0   0
           0   0  -1

 gtrans:     0.2500000     0.2500000     0.2500000

 ptrans:     0.0000000     0.0000000     0.0000000
 rotmap:
 (   1->   2)  (   2->   1) 


 irot  :  39
 --------------------------------------------------------------------
 isymop:   1   1   1
           0   0  -1
           0  -1   0

 gtrans:     0.2500000     0.2500000     0.2500000

 ptrans:     0.0000000     0.0000000     0.0000000
 rotmap:
 (   1->   2)  (   2->   1) 


 irot  :  40
 --------------------------------------------------------------------
 isymop:   0  -1   0
           0   0  -1
           1   1   1

 gtrans:     0.2500000     0.2500000     0.2500000

 ptrans:     0.0000000     0.0000000     0.0000000
 rotmap:
 (   1->   2)  (   2->   1) 


 irot  :  41
 --------------------------------------------------------------------
 isymop:  -1   0   0
           0  -1   0
           1   1   1

 gtrans:     0.2500000     0.2500000     0.2500000

 ptrans:     0.0000000     0.0000000     0.0000000
 rotmap:
 (   1->   2)  (   2->   1) 


 irot  :  42
 --------------------------------------------------------------------
 isymop:   0   0  -1
          -1   0   0
           1   1   1

 gtrans:     0.2500000     0.2500000     0.2500000

 ptrans:     0.0000000     0.0000000     0.0000000
 rotmap:
 (   1->   2)  (   2->   1) 


 irot  :  43
 --------------------------------------------------------------------
 isymop:  -1   0   0
           1   1   1
           0  -1   0

 gtrans:     0.2500000     0.2500000     0.2500000

 ptrans:     0.0000000     0.0000000     0.0000000
 rotmap:
 (   1->   2)  (   2->   1) 


 irot  :  44
 --------------------------------------------------------------------
 isymop:   0   0  -1
           1   1   1
          -1   0   0

 gtrans:     0.2500000     0.2500000     0.2500000

 ptrans:     0.0000000     0.0000000     0.0000000
 rotmap:
 (   1->   2)  (   2->   1) 


 irot  :  45
 --------------------------------------------------------------------
 isymop:   0  -1   0
           1   1   1
           0   0  -1

 gtrans:     0.2500000     0.2500000     0.2500000

 ptrans:     0.0000000     0.0000000     0.0000000
 rotmap:
 (   1->   2)  (   2->   1) 


 irot  :  46
 --------------------------------------------------------------------
 isymop:  -1   0   0
           0   0  -1
           0  -1   0

 gtrans:     0.2500000     0.2500000     0.2500000

 ptrans:     0.0000000     0.0000000     0.0000000
 rotmap:
 (   1->   2)  (   2->   1) 


 irot  :  47
 --------------------------------------------------------------------
 isymop:   0  -1   0
          -1   0   0
           0   0  -1

 gtrans:     0.2500000     0.2500000     0.2500000

 ptrans:     0.0000000     0.0000000     0.0000000
 rotmap:
 (   1->   2)  (   2->   1) 


 irot  :  48
 --------------------------------------------------------------------
 isymop:   0   0  -1
           0  -1   0
          -1   0   0

 gtrans:     0.2500000     0.2500000     0.2500000

 ptrans:     0.0000000     0.0000000     0.0000000
 rotmap:
 (   1->   2)  (   2->   1) 
 
 
 KPOINTS: k-points along high symmetry lines      
  k-points in reciprocal lattice
Space group operators:
 irot       det(A)        alpha          n_x          n_y          n_z        tau_x        tau_y        tau_z
    1     1.000000     0.000000     1.000000     0.000000     0.000000     0.000000     0.000000     0.000000
    2     1.000000   120.000000    -0.577350    -0.577350    -0.577350     0.000000     0.000000     0.000000
    3     1.000000   120.000000     0.577350     0.577350     0.577350     0.000000     0.000000     0.000000
    4    -1.000000    90.000000     0.000000     0.000000    -1.000000     0.000000     0.000000     0.000000
    5    -1.000000   180.000000     0.000000     0.707107     0.707107     0.000000     0.000000     0.000000
    6    -1.000000    90.000000     0.000000     1.000000     0.000000     0.000000     0.000000     0.000000
    7     1.000000   180.000000     0.000000     0.000000     1.000000     0.000000     0.000000     0.000000
    8     1.000000   120.000000    -0.577350     0.577350     0.577350     0.000000     0.000000     0.000000
    9     1.000000   120.000000    -0.577350     0.577350    -0.577350     0.000000     0.000000     0.000000
   10    -1.000000    90.000000     0.000000     0.000000     1.000000     0.000000     0.000000     0.000000
   11    -1.000000    90.000000    -1.000000     0.000000     0.000000     0.000000     0.000000     0.000000
   12    -1.000000   180.000000     0.707107     0.000000     0.707107     0.000000     0.000000     0.000000
   13     1.000000   120.000000     0.577350    -0.577350     0.577350     0.000000     0.000000     0.000000
   14     1.000000   120.000000    -0.577350    -0.577350     0.577350     0.000000     0.000000     0.000000
   15     1.000000   180.000000     1.000000     0.000000     0.000000     0.000000     0.000000     0.000000
   16    -1.000000    90.000000     0.000000    -1.000000     0.000000     0.000000     0.000000     0.000000
   17    -1.000000   180.000000     0.707107     0.707107     0.000000     0.000000     0.000000     0.000000
   18    -1.000000    90.000000     1.000000     0.000000     0.000000     0.000000     0.000000     0.000000
   19     1.000000   120.000000     0.577350    -0.577350    -0.577350     0.000000     0.000000     0.000000
   20     1.000000   180.000000     0.000000     1.000000     0.000000     0.000000     0.000000     0.000000
   21     1.000000   120.000000     0.577350     0.577350    -0.577350     0.000000     0.000000     0.000000
   22    -1.000000   180.000000     0.000000    -0.707107     0.707107     0.000000     0.000000     0.000000
   23    -1.000000   180.000000     0.707107    -0.707107     0.000000     0.000000     0.000000     0.000000
   24    -1.000000   180.000000     0.707107     0.000000    -0.707107     0.000000     0.000000     0.000000
   25    -1.000000     0.000000     1.000000     0.000000     0.000000     0.250000     0.250000     0.250000
   26    -1.000000   120.000000    -0.577350    -0.577350    -0.577350     0.250000     0.250000     0.250000
   27    -1.000000   120.000000     0.577350     0.577350     0.577350     0.250000     0.250000     0.250000
   28     1.000000    90.000000     0.000000     0.000000    -1.000000     0.250000     0.250000     0.250000
   29     1.000000   180.000000     0.000000     0.707107     0.707107     0.250000     0.250000     0.250000
   30     1.000000    90.000000     0.000000     1.000000     0.000000     0.250000     0.250000     0.250000
   31    -1.000000   180.000000     0.000000     0.000000     1.000000     0.250000     0.250000     0.250000
   32    -1.000000   120.000000    -0.577350     0.577350     0.577350     0.250000     0.250000     0.250000
   33    -1.000000   120.000000    -0.577350     0.577350    -0.577350     0.250000     0.250000     0.250000
   34     1.000000    90.000000     0.000000     0.000000     1.000000     0.250000     0.250000     0.250000
   35     1.000000    90.000000    -1.000000     0.000000     0.000000     0.250000     0.250000     0.250000
   36     1.000000   180.000000     0.707107     0.000000     0.707107     0.250000     0.250000     0.250000
   37    -1.000000   120.000000     0.577350    -0.577350     0.577350     0.250000     0.250000     0.250000
   38    -1.000000   120.000000    -0.577350    -0.577350     0.577350     0.250000     0.250000     0.250000
   39    -1.000000   180.000000     1.000000     0.000000     0.000000     0.250000     0.250000     0.250000
   40     1.000000    90.000000     0.000000    -1.000000     0.000000     0.250000     0.250000     0.250000
   41     1.000000   180.000000     0.707107     0.707107     0.000000     0.250000     0.250000     0.250000
   42     1.000000    90.000000     1.000000     0.000000     0.000000     0.250000     0.250000     0.250000
   43    -1.000000   120.000000     0.577350    -0.577350    -0.577350     0.250000     0.250000     0.250000
   44    -1.000000   180.000000     0.000000     1.000000     0.000000     0.250000     0.250000     0.250000
   45    -1.000000   120.000000     0.577350     0.577350    -0.577350     0.250000     0.250000     0.250000
   46     1.000000   180.000000     0.000000    -0.707107     0.707107     0.250000     0.250000     0.250000
   47     1.000000   180.000000     0.707107    -0.707107     0.000000     0.250000     0.250000     0.250000
   48     1.000000   180.000000     0.707107     0.000000    -0.707107     0.250000     0.250000     0.250000


--------------------------------------------------------------------------------------------------------




 Dimension of arrays:
   k-points           NKPTS =    111   k-points in BZ     NKDIM =    111   number of bands    NBANDS=     20
   number of dos      NEDOS =    301   number of ions     NIONS =      2
   non local maximal  LDIM  =      4   non local SUM 2l+1 LMDIM =      8
   total plane-waves  NPLWV =  21952
   max r-space proj   IRMAX =      1   max aug-charges    IRDMAX=   2959
   dimension x,y,z NGX =    28 NGY =   28 NGZ =   28
   dimension x,y,z NGXF=    30 NGYF=   30 NGZF=   30
   support grid    NGXF=    30 NGYF=   30 NGZF=   30
   ions per type =               2
 NGX,Y,Z   is equivalent  to a cutoff of  12.04, 12.04, 12.04 a.u.
 NGXF,Y,Z  is equivalent  to a cutoff of  12.90, 12.90, 12.90 a.u.


 I would recommend the setting:
   dimension x,y,z NGX =    28 NGY =   28 NGZ =   28
 SYSTEM =  bulk	                                   
 POSCAR =  Si                                      

 Startparameter for this run:
   NWRITE =      2    write-flag & timer
   PREC   = high      normal or accurate (medium, high low for compatibility)
   ISTART =      1    job   : 0-new  1-cont  2-samecut
   ICHARG =     11    charge: 1-file 2-atom 10-const
   ISPIN  =      1    spin polarized calculation?
   LNONCOLLINEAR =      F non collinear calculations
   LSORBIT =      F    spin-orbit coupling
   INIWAV =      1    electr: 0-lowe 1-rand  2-diag
   LASPH  =      F    aspherical Exc in radial PAW
   METAGGA=      F    non-selfconsistent MetaGGA calc.

 Electronic Relaxation 1
   ENCUT  =  500.0 eV  36.75 Ry    6.06 a.u.   7.05  7.05  7.05*2*pi/ulx,y,z
   ENINI  =  500.0     initial cutoff
   ENAUG  =  322.1 eV  augmentation charge cutoff
   NELM   =    100;   NELMIN=  8; NELMDL=  0     # of ELM steps 
   EDIFF  = 0.1E-05   stopping-criterion for ELM
   LREAL  =      F    real-space projection
   NLSPLINE    = F    spline interpolate recip. space projectors
   LCOMPAT=      F    compatible to vasp.4.4
   GGA_COMPAT  = T    GGA compatible to vasp.4.4-vasp.4.6
   LMAXPAW     = -100 max onsite density
   LMAXMIX     =    2 max onsite mixed and CHGCAR
   VOSKOWN=      0    Vosko Wilk Nusair interpolation
   ROPT   =    0.00000
 Ionic relaxation
   EDIFFG = 0.1E-05   stopping-criterion for IOM
   NSW    =      0    number of steps for IOM
   NBLOCK =      1;   KBLOCK =      1    inner block; outer block 
   IBRION =     -1    ionic relax: 0-MD 1-quasi-New 2-CG
   NFREE  =      0    steps in history (QN), initial steepest desc. (CG)
   ISIF   =      2    stress and relaxation
   IWAVPR =     10    prediction:  0-non 1-charg 2-wave 3-comb
   ISYM   =      2    0-nonsym 1-usesym 2-fastsym
   LCORR  =      T    Harris-Foulkes like correction to forces

   POTIM  = 0.0500    time-step for ionic-motion
   TEIN   =    0.0    initial temperature
   TEBEG  =    0.0;   TEEND  =   0.0 temperature during run
   SMASS  =  -3.00    Nose mass-parameter (am)
   estimated Nose-frequenzy (Omega)   =  0.10E-29 period in steps =****** mass=  -0.342E-27a.u.
   SCALEE = 1.0000    scale energy and forces
   NPACO  =    256;   APACO  = 16.0  distance and # of slots for P.C.
   PSTRESS=    0.0 pullay stress

  Mass of Ions in am
   POMASS =  28.09
  Ionic Valenz
   ZVAL   =   4.00
  Atomic Wigner-Seitz radii
   RWIGS  =  -1.00
  virtual crystal weights 
   VCA    =   1.00
   NELECT =       8.0000    total number of electrons
   NUPDOWN=      -1.0000    fix difference up-down

 DOS related values:
   EMIN   =  10.00;   EMAX   =-10.00  energy-range for DOS
   EFERMI =   0.00
   ISMEAR =     0;   SIGMA  =   0.10  broadening in eV -4-tet -1-fermi 0-gaus

 Electronic relaxation 2 (details)
   IALGO  =     38    algorithm
   LDIAG  =      T    sub-space diagonalisation (order eigenvalues)
   LSUBROT=      T    optimize rotation matrix (better conditioning)
   TURBO    =      0    0=normal 1=particle mesh
   IRESTART =      0    0=no restart 2=restart with 2 vectors
   NREBOOT  =      0    no. of reboots
   NMIN     =      0    reboot dimension
   EREF     =   0.00    reference energy to select bands
   IMIX   =      4    mixing-type and parameters
     AMIX     =   0.40;   BMIX     =  1.00
     AMIX_MAG =   1.60;   BMIX_MAG =  1.00
     AMIN     =   0.10
     WC   =   100.;   INIMIX=   1;  MIXPRE=   1;  MAXMIX= -45

 Intra band minimization:
   WEIMIN = 0.0000     energy-eigenvalue tresh-hold
   EBREAK =  0.13E-08  absolut break condition
   DEPER  =   0.30     relativ break condition  

   TIME   =   0.40     timestep for ELM

  volume/ion in A,a.u.               =      20.44       137.96
  Fermi-wavevector in a.u.,A,eV,Ry     =   0.950399  1.795993 12.289565  0.903258
  Thomas-Fermi vector in A             =   2.078772
 
 Write flags
   LWAVE  =      F    write WAVECAR
   LCHARG =      F    write CHGCAR
   LVTOT  =      F    write LOCPOT, total local potential
   LVHAR  =      F    write LOCPOT, Hartree potential only
   LELF   =      F    write electronic localiz. function (ELF)
   LORBIT =     11    0 simple, 1 ext, 2 COOP (PROOUT)


 Dipole corrections
   LMONO  =      F    monopole corrections only (constant potential shift)
   LDIPOL =      F    correct potential (dipole corrections)
   IDIPOL =      0    1-x, 2-y, 3-z, 4-all directions 
   EPSILON=  1.0000000 bulk dielectric constant

 Exchange correlation treatment:
   GGA     =    PE    GGA type
   LEXCH   =     8    internal setting for exchange type
   VOSKOWN=      0    Vosko Wilk Nusair interpolation
   LHFCALC =     F    Hartree Fock is set to
   LHFONE  =     F    Hartree Fock one center treatment
   AEXX    =    0.0000 exact exchange contribution

 Linear response parameters
   LEPSILON=     F    determine dielectric tensor
   LRPA    =     F    only Hartree local field effects (RPA)
   LNABLA  =     F    use nabla operator in PAW spheres
   LVEL    =     F    velocity operator in full k-point grid
   LINTERFAST=   F  fast interpolation
   KINTER  =     0    interpolate to denser k-point grid
   CSHIFT  =0.1000    complex shift for real part using Kramers Kronig
   OMEGAMAX=  -1.0    maximum frequency
   DEG_THRESHOLD= 0.2000000E-02 threshold for treating states as degnerate
   RTIME   =    0.100 relaxation time in fs

 Orbital magnetization related:
   ORBITALMAG=     F  switch on orbital magnetization
   LCHIMAG   =     F  perturbation theory with respect to B field
   DQ        =  0.001000  dq finite difference perturbation B field



--------------------------------------------------------------------------------------------------------


 Static calculation
 charge density and potential remain constant during run
 non-spin polarized calculation
 Variant of blocked Davidson
 Davidson routine will perform the subspace rotation
 perform sub-space diagonalisation
    after iterative eigenvector-optimisation
 no mixing
 using additional bands           16
 reciprocal scheme for non local part
 use partial core corrections
 calculate Harris-corrections to forces 
   (improved forces if not selfconsistent)
 use gradient corrections 
 WARNING: stress and forces are not correct
  (second derivative of E(xc) not defined)
 use of overlap-Matrix (Vanderbilt PP)
 Gauss-broadening in eV      SIGMA  =   0.10


--------------------------------------------------------------------------------------------------------


  energy-cutoff  :      500.00
  volume of cell :       40.89
      direct lattice vectors                 reciprocal lattice vectors
     0.000000000  2.734360000  2.734360000    -0.182858146  0.182858146  0.182858146
     2.734360000  0.000000000  2.734360000     0.182858146 -0.182858146  0.182858146
     2.734360000  2.734360000  0.000000000     0.182858146  0.182858146 -0.182858146

  length of vectors
     3.866968996  3.866968996  3.866968996     0.316719599  0.316719599  0.316719599


 
 old parameters found on file WAVECAR:
  energy-cutoff  :      500.00
  volume of cell :       40.89
      direct lattice vectors                 reciprocal lattice vectors
     0.000000000  2.734360000  2.734360000    -0.182858146  0.182858146  0.182858146
     2.734360000  0.000000000  2.734360000     0.182858146 -0.182858146  0.182858146
     2.734360000  2.734360000  0.000000000     0.182858146  0.182858146 -0.182858146

  length of vectors

 
 k-points in units of 2pi/SCALE and weight: k-points along high symmetry lines      
   0.00000000  0.00000000  0.00000000       0.009
   0.00000000  0.05000000  0.00000000       0.009
   0.00000000  0.10000000  0.00000000       0.009
   0.00000000  0.15000000  0.00000000       0.009
   0.00000000  0.20000000  0.00000000       0.009
   0.00000000  0.25000000  0.00000000       0.009
   0.00000000  0.30000000  0.00000000       0.009
   0.00000000  0.35000000  0.00000000       0.009
   0.00000000  0.40000000  0.00000000       0.009
   0.00000000  0.45000000  0.00000000       0.009
   0.00000000  0.50000000  0.00000000       0.009
   0.00000000  0.55000000  0.00000000       0.009
   0.00000000  0.60000000  0.00000000       0.009
   0.00000000  0.65000000  0.00000000       0.009
   0.00000000  0.70000000  0.00000000       0.009
   0.00000000  0.75000000  0.00000000       0.009
   0.00000000  0.80000000  0.00000000       0.009
   0.00000000  0.85000000  0.00000000       0.009
   0.00000000  0.90000000  0.00000000       0.009
   0.00000000  0.95000000  0.00000000       0.009
   0.00000000  1.00000000  0.00000000       0.009
   0.03333400  1.00000000  0.00000000       0.009
   0.06666600  1.00000000  0.00000000       0.009
   0.10000000  1.00000000 -0.00000000       0.009
   0.13333400  1.00000000 -0.00000000       0.009
   0.16666600  1.00000000  0.00000000       0.009
   0.20000000  1.00000000  0.00000000       0.009
   0.23333400  1.00000000  0.00000000       0.009
   0.26666600  1.00000000  0.00000000       0.009
   0.30000000  1.00000000  0.00000000       0.009
   0.33333400  1.00000000  0.00000000       0.009
   0.36666600  1.00000000  0.00000000       0.009
   0.40000000  1.00000000  0.00000000       0.009
   0.43333400  1.00000000  0.00000000       0.009
   0.46666600  1.00000000  0.00000000       0.009
   0.50000000  1.00000000  0.00000000       0.009
   0.50000000  0.97500000  0.02500000       0.009
   0.50000000  0.95000000  0.05000000       0.009
   0.50000000  0.92500000  0.07500000       0.009
   0.50000000  0.90000000  0.10000000       0.009
   0.50000000  0.87500000  0.12500000       0.009
   0.50000000  0.85000000  0.15000000       0.009
   0.50000000  0.82500000  0.17500000       0.009
   0.50000000  0.80000000  0.20000000       0.009
   0.50000000  0.77500000  0.22500000       0.009
   0.50000000  0.75000000  0.25000000       0.009
   0.50000000  0.72500000  0.27500000       0.009
   0.50000000  0.70000000  0.30000000       0.009
   0.50000000  0.67500000  0.32500000       0.009
   0.50000000  0.65000000  0.35000000       0.009
   0.50000000  0.62500000  0.37500000       0.009
   0.50000000  0.60000000  0.40000000       0.009
   0.50000000  0.57500000  0.42500000       0.009
   0.50000000  0.55000000  0.45000000       0.009
   0.50000000  0.52500000  0.47500000       0.009
   0.50000000  0.50000000  0.50000000       0.009
   0.47500000  0.47500000  0.47500000       0.009
   0.45000000  0.45000000  0.45000000       0.009
   0.42500000  0.42500000  0.42500000       0.009
   0.40000000  0.40000000  0.40000000       0.009
   0.37500000  0.37500000  0.37500000       0.009
   0.35000000  0.35000000  0.35000000       0.009
   0.32500000  0.32500000  0.32500000       0.009
   0.30000000  0.30000000  0.30000000       0.009
   0.27500000  0.27500000  0.27500000       0.009
   0.25000000  0.25000000  0.25000000       0.009
   0.22500000  0.22500000  0.22500000       0.009
   0.20000000  0.20000000  0.20000000       0.009
   0.17500000  0.17500000  0.17500000       0.009
   0.15000000  0.15000000  0.15000000       0.009
   0.12500000  0.12500000  0.12500000       0.009
   0.10000000  0.10000000  0.10000000       0.009
   0.07500000  0.07500000  0.07500000       0.009
   0.05000000  0.05000000  0.05000000       0.009
   0.02500000  0.02500000  0.02500000       0.009
   0.00000000  0.00000000  0.00000000       0.009
   0.03750000  0.03750000  0.00000000       0.009
   0.07500000  0.07500000  0.00000000       0.009
   0.11250000  0.11250000  0.00000000       0.009
   0.15000000  0.15000000  0.00000000       0.009
   0.18750000  0.18750000  0.00000000       0.009
   0.22500000  0.22500000  0.00000000       0.009
   0.26250000  0.26250000  0.00000000       0.009
   0.30000000  0.30000000  0.00000000       0.009
   0.33750000  0.33750000  0.00000000       0.009
   0.37500000  0.37500000  0.00000000       0.009
   0.41250000  0.41250000  0.00000000       0.009
   0.45000000  0.45000000  0.00000000       0.009
   0.48750000  0.48750000  0.00000000       0.009
   0.52500000  0.52500000  0.00000000       0.009
   0.56250000  0.56250000  0.00000000       0.009
   0.60000000  0.60000000  0.00000000       0.009
   0.63750000  0.63750000  0.00000000       0.009
   0.67500000  0.67500000  0.00000000       0.009
   0.71250000  0.71250000  0.00000000       0.009
   0.75000000  0.75000000  0.00000000       0.009
   0.70000000  0.76666600 -0.00000000       0.009
   0.65000000  0.78333400  0.00000000       0.009
   0.60000000  0.80000000  0.00000000       0.009
   0.55000000  0.81666600  0.00000000       0.009
   0.50000000  0.83333400 -0.00000000       0.009
   0.45000000  0.85000000  0.00000000       0.009
   0.40000000  0.86666600  0.00000000       0.009
   0.35000000  0.88333400  0.00000000       0.009
   0.30000000  0.90000000  0.00000000       0.009
   0.25000000  0.91666600 -0.00000000       0.009
   0.20000000  0.93333400  0.00000000       0.009
   0.15000000  0.95000000 -0.00000000       0.009
   0.10000000  0.96666600  0.00000000       0.009
   0.05000000  0.98333400  0.00000000       0.009
   0.00000000  1.00000000  0.00000000       0.009
 
 k-points in reciprocal lattice and weights: k-points along high symmetry lines      
   0.00000000  0.00000000  0.00000000       0.009
   0.02500000  0.00000000  0.02500000       0.009
   0.05000000  0.00000000  0.05000000       0.009
   0.07500000  0.00000000  0.07500000       0.009
   0.10000000  0.00000000  0.10000000       0.009
   0.12500000  0.00000000  0.12500000       0.009
   0.15000000  0.00000000  0.15000000       0.009
   0.17500000  0.00000000  0.17500000       0.009
   0.20000000  0.00000000  0.20000000       0.009
   0.22500000  0.00000000  0.22500000       0.009
   0.25000000  0.00000000  0.25000000       0.009
   0.27500000  0.00000000  0.27500000       0.009
   0.30000000  0.00000000  0.30000000       0.009
   0.32500000  0.00000000  0.32500000       0.009
   0.35000000  0.00000000  0.35000000       0.009
   0.37500000  0.00000000  0.37500000       0.009
   0.40000000  0.00000000  0.40000000       0.009
   0.42500000  0.00000000  0.42500000       0.009
   0.45000000  0.00000000  0.45000000       0.009
   0.47500000  0.00000000  0.47500000       0.009
   0.50000000  0.00000000  0.50000000       0.009
   0.50000000  0.01666700  0.51666700       0.009
   0.50000000  0.03333300  0.53333300       0.009
   0.50000000  0.05000000  0.55000000       0.009
   0.50000000  0.06666700  0.56666700       0.009
   0.50000000  0.08333300  0.58333300       0.009
   0.50000000  0.10000000  0.60000000       0.009
   0.50000000  0.11666700  0.61666700       0.009
   0.50000000  0.13333300  0.63333300       0.009
   0.50000000  0.15000000  0.65000000       0.009
   0.50000000  0.16666700  0.66666700       0.009
   0.50000000  0.18333300  0.68333300       0.009
   0.50000000  0.20000000  0.70000000       0.009
   0.50000000  0.21666700  0.71666700       0.009
   0.50000000  0.23333300  0.73333300       0.009
   0.50000000  0.25000000  0.75000000       0.009
   0.50000000  0.26250000  0.73750000       0.009
   0.50000000  0.27500000  0.72500000       0.009
   0.50000000  0.28750000  0.71250000       0.009
   0.50000000  0.30000000  0.70000000       0.009
   0.50000000  0.31250000  0.68750000       0.009
   0.50000000  0.32500000  0.67500000       0.009
   0.50000000  0.33750000  0.66250000       0.009
   0.50000000  0.35000000  0.65000000       0.009
   0.50000000  0.36250000  0.63750000       0.009
   0.50000000  0.37500000  0.62500000       0.009
   0.50000000  0.38750000  0.61250000       0.009
   0.50000000  0.40000000  0.60000000       0.009
   0.50000000  0.41250000  0.58750000       0.009
   0.50000000  0.42500000  0.57500000       0.009
   0.50000000  0.43750000  0.56250000       0.009
   0.50000000  0.45000000  0.55000000       0.009
   0.50000000  0.46250000  0.53750000       0.009
   0.50000000  0.47500000  0.52500000       0.009
   0.50000000  0.48750000  0.51250000       0.009
   0.50000000  0.50000000  0.50000000       0.009
   0.47500000  0.47500000  0.47500000       0.009
   0.45000000  0.45000000  0.45000000       0.009
   0.42500000  0.42500000  0.42500000       0.009
   0.40000000  0.40000000  0.40000000       0.009
   0.37500000  0.37500000  0.37500000       0.009
   0.35000000  0.35000000  0.35000000       0.009
   0.32500000  0.32500000  0.32500000       0.009
   0.30000000  0.30000000  0.30000000       0.009
   0.27500000  0.27500000  0.27500000       0.009
   0.25000000  0.25000000  0.25000000       0.009
   0.22500000  0.22500000  0.22500000       0.009
   0.20000000  0.20000000  0.20000000       0.009
   0.17500000  0.17500000  0.17500000       0.009
   0.15000000  0.15000000  0.15000000       0.009
   0.12500000  0.12500000  0.12500000       0.009
   0.10000000  0.10000000  0.10000000       0.009
   0.07500000  0.07500000  0.07500000       0.009
   0.05000000  0.05000000  0.05000000       0.009
   0.02500000  0.02500000  0.02500000       0.009
   0.00000000  0.00000000  0.00000000       0.009
   0.01875000  0.01875000  0.03750000       0.009
   0.03750000  0.03750000  0.07500000       0.009
   0.05625000  0.05625000  0.11250000       0.009
   0.07500000  0.07500000  0.15000000       0.009
   0.09375000  0.09375000  0.18750000       0.009
   0.11250000  0.11250000  0.22500000       0.009
   0.13125000  0.13125000  0.26250000       0.009
   0.15000000  0.15000000  0.30000000       0.009
   0.16875000  0.16875000  0.33750000       0.009
   0.18750000  0.18750000  0.37500000       0.009
   0.20625000  0.20625000  0.41250000       0.009
   0.22500000  0.22500000  0.45000000       0.009
   0.24375000  0.24375000  0.48750000       0.009
   0.26250000  0.26250000  0.52500000       0.009
   0.28125000  0.28125000  0.56250000       0.009
   0.30000000  0.30000000  0.60000000       0.009
   0.31875000  0.31875000  0.63750000       0.009
   0.33750000  0.33750000  0.67500000       0.009
   0.35625000  0.35625000  0.71250000       0.009
   0.37500000  0.37500000  0.75000000       0.009
   0.38333300  0.35000000  0.73333300       0.009
   0.39166700  0.32500000  0.71666700       0.009
   0.40000000  0.30000000  0.70000000       0.009
   0.40833300  0.27500000  0.68333300       0.009
   0.41666700  0.25000000  0.66666700       0.009
   0.42500000  0.22500000  0.65000000       0.009
   0.43333300  0.20000000  0.63333300       0.009
   0.44166700  0.17500000  0.61666700       0.009
   0.45000000  0.15000000  0.60000000       0.009
   0.45833300  0.12500000  0.58333300       0.009
   0.46666700  0.10000000  0.56666700       0.009
   0.47500000  0.07500000  0.55000000       0.009
   0.48333300  0.05000000  0.53333300       0.009
   0.49166700  0.02500000  0.51666700       0.009
   0.50000000  0.00000000  0.50000000       0.009
 
 position of ions in fractional coordinates (direct lattice) 
   0.00000000  0.00000000  0.00000000
   0.25000000  0.25000000  0.25000000
 
 position of ions in cartesian coordinates  (Angst):
   0.00000000  0.00000000  0.00000000
   1.36718000  1.36718000  1.36718000
 


--------------------------------------------------------------------------------------------------------


 k-point  1 :   0.0000 0.0000 0.0000  plane waves:    1037
 k-point  2 :   0.0250 0.0000 0.0250  plane waves:    1022
 k-point  3 :   0.0500 0.0000 0.0500  plane waves:    1014
 k-point  4 :   0.0750 0.0000 0.0750  plane waves:    1014
 k-point  5 :   0.1000 0.0000 0.1000  plane waves:    1010
 k-point  6 :   0.1250 0.0000 0.1250  plane waves:    1010
 k-point  7 :   0.1500 0.0000 0.1500  plane waves:    1018
 k-point  8 :   0.1750 0.0000 0.1750  plane waves:    1018
 k-point  9 :   0.2000 0.0000 0.2000  plane waves:    1026
 k-point 10 :   0.2250 0.0000 0.2250  plane waves:    1030
 k-point 11 :   0.2500 0.0000 0.2500  plane waves:    1022
 k-point 12 :   0.2750 0.0000 0.2750  plane waves:    1022
 k-point 13 :   0.3000 0.0000 0.3000  plane waves:    1030
 k-point 14 :   0.3250 0.0000 0.3250  plane waves:    1030
 k-point 15 :   0.3500 0.0000 0.3500  plane waves:    1030
 k-point 16 :   0.3750 0.0000 0.3750  plane waves:    1030
 k-point 17 :   0.4000 0.0000 0.4000  plane waves:    1034
 k-point 18 :   0.4250 0.0000 0.4250  plane waves:    1042
 k-point 19 :   0.4500 0.0000 0.4500  plane waves:    1034
 k-point 20 :   0.4750 0.0000 0.4750  plane waves:    1034
 k-point 21 :   0.5000 0.0000 0.5000  plane waves:    1034
 k-point 22 :   0.5000 0.0167 0.5167  plane waves:    1034
 k-point 23 :   0.5000 0.0333 0.5333  plane waves:    1034
 k-point 24 :   0.5000 0.0500 0.5500  plane waves:    1036
 k-point 25 :   0.5000 0.0667 0.5667  plane waves:    1034
 k-point 26 :   0.5000 0.0833 0.5833  plane waves:    1038
 k-point 27 :   0.5000 0.1000 0.6000  plane waves:    1038
 k-point 28 :   0.5000 0.1167 0.6167  plane waves:    1042
 k-point 29 :   0.5000 0.1333 0.6333  plane waves:    1042
 k-point 30 :   0.5000 0.1500 0.6500  plane waves:    1040
 k-point 31 :   0.5000 0.1667 0.6667  plane waves:    1040
 k-point 32 :   0.5000 0.1833 0.6833  plane waves:    1044
 k-point 33 :   0.5000 0.2000 0.7000  plane waves:    1042
 k-point 34 :   0.5000 0.2167 0.7167  plane waves:    1042
 k-point 35 :   0.5000 0.2333 0.7333  plane waves:    1046
 k-point 36 :   0.5000 0.2500 0.7500  plane waves:    1048
 k-point 37 :   0.5000 0.2625 0.7375  plane waves:    1044
 k-point 38 :   0.5000 0.2750 0.7250  plane waves:    1042
 k-point 39 :   0.5000 0.2875 0.7125  plane waves:    1044
 k-point 40 :   0.5000 0.3000 0.7000  plane waves:    1040
 k-point 41 :   0.5000 0.3125 0.6875  plane waves:    1044
 k-point 42 :   0.5000 0.3250 0.6750  plane waves:    1048
 k-point 43 :   0.5000 0.3375 0.6625  plane waves:    1042
 k-point 44 :   0.5000 0.3500 0.6500  plane waves:    1046
 k-point 45 :   0.5000 0.3625 0.6375  plane waves:    1044
 k-point 46 :   0.5000 0.3750 0.6250  plane waves:    1042
 k-point 47 :   0.5000 0.3875 0.6125  plane waves:    1042
 k-point 48 :   0.5000 0.4000 0.6000  plane waves:    1040
 k-point 49 :   0.5000 0.4125 0.5875  plane waves:    1036
 k-point 50 :   0.5000 0.4250 0.5750  plane waves:    1040
 k-point 51 :   0.5000 0.4375 0.5625  plane waves:    1040
 k-point 52 :   0.5000 0.4500 0.5500  plane waves:    1042
 k-point 53 :   0.5000 0.4625 0.5375  plane waves:    1046
 k-point 54 :   0.5000 0.4750 0.5250  plane waves:    1050
 k-point 55 :   0.5000 0.4875 0.5125  plane waves:    1054
 k-point 56 :   0.5000 0.5000 0.5000  plane waves:    1056
 k-point 57 :   0.4750 0.4750 0.4750  plane waves:    1044
 k-point 58 :   0.4500 0.4500 0.4500  plane waves:    1038
 k-point 59 :   0.4250 0.4250 0.4250  plane waves:    1038
 k-point 60 :   0.4000 0.4000 0.4000  plane waves:    1038
 k-point 61 :   0.3750 0.3750 0.3750  plane waves:    1038
 k-point 62 :   0.3500 0.3500 0.3500  plane waves:    1041
 k-point 63 :   0.3250 0.3250 0.3250  plane waves:    1044
 k-point 64 :   0.3000 0.3000 0.3000  plane waves:    1035
 k-point 65 :   0.2750 0.2750 0.2750  plane waves:    1035
 k-point 66 :   0.2500 0.2500 0.2500  plane waves:    1029
 k-point 67 :   0.2250 0.2250 0.2250  plane waves:    1025
 k-point 68 :   0.2000 0.2000 0.2000  plane waves:    1031
 k-point 69 :   0.1750 0.1750 0.1750  plane waves:    1019
 k-point 70 :   0.1500 0.1500 0.1500  plane waves:    1019
 k-point 71 :   0.1250 0.1250 0.1250  plane waves:    1013
 k-point 72 :   0.1000 0.1000 0.1000  plane waves:    1016
 k-point 73 :   0.0750 0.0750 0.0750  plane waves:    1016
 k-point 74 :   0.0500 0.0500 0.0500  plane waves:    1022
 k-point 75 :   0.0250 0.0250 0.0250  plane waves:    1025
 k-point 76 :   0.0000 0.0000 0.0000  plane waves:    1037
 k-point 77 :   0.0187 0.0187 0.0375  plane waves:    1019
 k-point 78 :   0.0375 0.0375 0.0750  plane waves:    1023
 k-point 79 :   0.0563 0.0563 0.1125  plane waves:    1019
 k-point 80 :   0.0750 0.0750 0.1500  plane waves:    1015
 k-point 81 :   0.0938 0.0938 0.1875  plane waves:    1021
 k-point 82 :   0.1125 0.1125 0.2250  plane waves:    1021
 k-point 83 :   0.1313 0.1313 0.2625  plane waves:    1029
 k-point 84 :   0.1500 0.1500 0.3000  plane waves:    1041
 k-point 85 :   0.1688 0.1688 0.3375  plane waves:    1041
 k-point 86 :   0.1875 0.1875 0.3750  plane waves:    1043
 k-point 87 :   0.2062 0.2062 0.4125  plane waves:    1047
 k-point 88 :   0.2250 0.2250 0.4500  plane waves:    1047
 k-point 89 :   0.2437 0.2437 0.4875  plane waves:    1033
 k-point 90 :   0.2625 0.2625 0.5250  plane waves:    1033
 k-point 91 :   0.2812 0.2812 0.5625  plane waves:    1029
 k-point 92 :   0.3000 0.3000 0.6000  plane waves:    1037
 k-point 93 :   0.3187 0.3187 0.6375  plane waves:    1035
 k-point 94 :   0.3375 0.3375 0.6750  plane waves:    1031
 k-point 95 :   0.3563 0.3563 0.7125  plane waves:    1039
 k-point 96 :   0.3750 0.3750 0.7500  plane waves:    1043
 k-point 97 :   0.3833 0.3500 0.7333  plane waves:    1043
 k-point 98 :   0.3917 0.3250 0.7167  plane waves:    1042
 k-point 99 :   0.4000 0.3000 0.7000  plane waves:    1040
 k-point ** :   0.4083 0.2750 0.6833  plane waves:    1037
 k-point ** :   0.4167 0.2500 0.6667  plane waves:    1044
 k-point ** :   0.4250 0.2250 0.6500  plane waves:    1044
 k-point ** :   0.4333 0.2000 0.6333  plane waves:    1041
 k-point ** :   0.4417 0.1750 0.6167  plane waves:    1041
 k-point ** :   0.4500 0.1500 0.6000  plane waves:    1041
 k-point ** :   0.4583 0.1250 0.5833  plane waves:    1045
 k-point ** :   0.4667 0.1000 0.5667  plane waves:    1041
 k-point ** :   0.4750 0.0750 0.5500  plane waves:    1040
 k-point ** :   0.4833 0.0500 0.5333  plane waves:    1034
 k-point ** :   0.4917 0.0250 0.5167  plane waves:    1034
 k-point ** :   0.5000 0.0000 0.5000  plane waves:    1034

 maximum and minimum number of plane-waves per node :        72       57

 maximum number of plane-waves:      1056
 maximum index in each direction: 
   IXMAX=    7   IYMAX=    7   IZMAX=    7
   IXMIN=   -7   IYMIN=   -7   IZMIN=   -7

 WARNING: aliasing errors must be expected set NGX to  30 to avoid them
 WARNING: aliasing errors must be expected set NGY to  30 to avoid them
 WARNING: aliasing errors must be expected set NGZ to  30 to avoid them
 aliasing errors are usually negligible using standard VASP settings
 and one can safely disregard these warnings

 parallel 3D FFT for wavefunctions:
    minimum data exchange during FFTs selected (reduces bandwidth)
 parallel 3D FFT for charge:
    minimum data exchange during FFTs selected (reduces bandwidth)


 total amount of memory used by VASP on root node    33467. kBytes
========================================================================

   base      :      30000. kBytes
   nonl-proj :        485. kBytes
   fftplans  :        127. kBytes
   grid      :        153. kBytes
   one-center:          3. kBytes
   wavefun   :       2699. kBytes
 
 initial charge density was supplied:
 number of electron       8.0000004 magnetization 
 keeping initial charge density in first step


--------------------------------------------------------------------------------------------------------


 Maximum index for augmentation-charges          211 (set IRDMAX)


--------------------------------------------------------------------------------------------------------


 First call to EWALD:  gamma=   0.514
 Maximum number of real-space cells 3x 3x 3
 Maximum number of reciprocal cells 3x 3x 3

 FEWALD executed in parallel
    FEWALD:  cpu time    0.00: real time    0.00


----------------------------------------- Iteration    1(   1)  ---------------------------------------


    POTLOK:  cpu time    0.00: real time    0.00
    SETDIJ:  cpu time    0.00: real time    0.00
     EDDAV:  cpu time    1.12: real time    1.12
       DOS:  cpu time    0.00: real time    0.00
    --------------------------------------------
      LOOP:  cpu time    1.13: real time    1.13

 eigenvalue-minimisations  :  6540
 total energy-change (2. order) :-0.7878446E+01  (-0.2681164E+02)
 number of electron       8.0000004 magnetization 
 augmentation part        8.0000004 magnetization 

 Free energy of the ion-electron system (eV)
  ---------------------------------------------------
  alpha Z        PSCENC =         3.29319482
  Ewald energy   TEWEN  =      -226.94523405
  -1/2 Hartree   DENC   =       -15.17067378
  -exchange  EXHF       =         0.00000000
  -V(xc)+E(xc)   XCENC  =       -18.06039216
  PAW double counting   =       829.54265742     -794.56149267
  entropy T*S    EENTRO =        -0.00000008
  eigenvalues    EBANDS =         7.89098128
  atomic energy  EATOM  =       206.13251344
  ---------------------------------------------------
  free energy    TOTEN  =        -7.87844578 eV

  energy without entropy =       -7.87844570  energy(sigma->0) =       -7.87844574


--------------------------------------------------------------------------------------------------------




----------------------------------------- Iteration    1(   2)  ---------------------------------------


     EDDAV:  cpu time    0.93: real time    0.94
       DOS:  cpu time    0.00: real time    0.00
    --------------------------------------------
      LOOP:  cpu time    0.94: real time    0.94

 eigenvalue-minimisations  :  5376
 total energy-change (2. order) :-0.1010748E+01  (-0.9965071E+00)
 number of electron       8.0000004 magnetization 
 augmentation part        8.0000004 magnetization 

 Free energy of the ion-electron system (eV)
  ---------------------------------------------------
  alpha Z        PSCENC =         3.29319482
  Ewald energy   TEWEN  =      -226.94523405
  -1/2 Hartree   DENC   =       -15.17067378
  -exchange  EXHF       =         0.00000000
  -V(xc)+E(xc)   XCENC  =       -18.06039216
  PAW double counting   =       829.54265742     -794.56149267
  entropy T*S    EENTRO =        -0.00000036
  eigenvalues    EBANDS =         6.88023351
  atomic energy  EATOM  =       206.13251344
  ---------------------------------------------------
  free energy    TOTEN  =        -8.88919382 eV

  energy without entropy =       -8.88919347  energy(sigma->0) =       -8.88919365


--------------------------------------------------------------------------------------------------------




----------------------------------------- Iteration    1(   3)  ---------------------------------------


     EDDAV:  cpu time    0.94: real time    0.94
       DOS:  cpu time    0.00: real time    0.00
    --------------------------------------------
      LOOP:  cpu time    0.94: real time    0.94

 eigenvalue-minimisations  :  5404
 total energy-change (2. order) :-0.7298624E-02  (-0.7296673E-02)
 number of electron       8.0000004 magnetization 
 augmentation part        8.0000004 magnetization 

 Free energy of the ion-electron system (eV)
  ---------------------------------------------------
  alpha Z        PSCENC =         3.29319482
  Ewald energy   TEWEN  =      -226.94523405
  -1/2 Hartree   DENC   =       -15.17067378
  -exchange  EXHF       =         0.00000000
  -V(xc)+E(xc)   XCENC  =       -18.06039216
  PAW double counting   =       829.54265742     -794.56149267
  entropy T*S    EENTRO =        -0.00000036
  eigenvalues    EBANDS =         6.87293489
  atomic energy  EATOM  =       206.13251344
  ---------------------------------------------------
  free energy    TOTEN  =        -8.89649245 eV

  energy without entropy =       -8.89649209  energy(sigma->0) =       -8.89649227


--------------------------------------------------------------------------------------------------------




----------------------------------------- Iteration    1(   4)  ---------------------------------------


     EDDAV:  cpu time    0.95: real time    0.95
       DOS:  cpu time    0.00: real time    0.00
    --------------------------------------------
      LOOP:  cpu time    0.95: real time    0.96

 eigenvalue-minimisations  :  5508
 total energy-change (2. order) :-0.3250658E-04  (-0.3250621E-04)
 number of electron       8.0000004 magnetization 
 augmentation part        8.0000004 magnetization 

 Free energy of the ion-electron system (eV)
  ---------------------------------------------------
  alpha Z        PSCENC =         3.29319482
  Ewald energy   TEWEN  =      -226.94523405
  -1/2 Hartree   DENC   =       -15.17067378
  -exchange  EXHF       =         0.00000000
  -V(xc)+E(xc)   XCENC  =       -18.06039216
  PAW double counting   =       829.54265742     -794.56149267
  entropy T*S    EENTRO =        -0.00000036
  eigenvalues    EBANDS =         6.87290238
  atomic energy  EATOM  =       206.13251344
  ---------------------------------------------------
  free energy    TOTEN  =        -8.89652496 eV

  energy without entropy =       -8.89652459  energy(sigma->0) =       -8.89652477


--------------------------------------------------------------------------------------------------------




----------------------------------------- Iteration    1(   5)  ---------------------------------------


     EDDAV:  cpu time    0.94: real time    0.94
       DOS:  cpu time    0.00: real time    0.00
    --------------------------------------------
      LOOP:  cpu time    0.95: real time    0.95

 eigenvalue-minimisations  :  5432
 total energy-change (2. order) :-0.2346330E-06  (-0.2340712E-06)
 number of electron       8.0000004 magnetization 
 augmentation part        8.0000004 magnetization 

 Free energy of the ion-electron system (eV)
  ---------------------------------------------------
  alpha Z        PSCENC =         3.29319482
  Ewald energy   TEWEN  =      -226.94523405
  -1/2 Hartree   DENC   =       -15.17067378
  -exchange  EXHF       =         0.00000000
  -V(xc)+E(xc)   XCENC  =       -18.06039216
  PAW double counting   =       829.54265742     -794.56149267
  entropy T*S    EENTRO =        -0.00000036
  eigenvalues    EBANDS =         6.87290215
  atomic energy  EATOM  =       206.13251344
  ---------------------------------------------------
  free energy    TOTEN  =        -8.89652519 eV

  energy without entropy =       -8.89652483  energy(sigma->0) =       -8.89652501


--------------------------------------------------------------------------------------------------------




----------------------------------------- Iteration    1(   6)  ---------------------------------------


     EDDAV:  cpu time    0.89: real time    0.89
       DOS:  cpu time    0.00: real time    0.00
    --------------------------------------------
      LOOP:  cpu time    0.89: real time    0.90

 eigenvalue-minimisations  :  4992
 total energy-change (2. order) :-0.1991111E-08  (-0.2044626E-08)
 number of electron       8.0000004 magnetization 
 augmentation part        8.0000004 magnetization 

 Free energy of the ion-electron system (eV)
  ---------------------------------------------------
  alpha Z        PSCENC =         3.29319482
  Ewald energy   TEWEN  =      -226.94523405
  -1/2 Hartree   DENC   =       -15.17067378
  -exchange  EXHF       =         0.00000000
  -V(xc)+E(xc)   XCENC  =       -18.06039216
  PAW double counting   =       829.54265742     -794.56149267
  entropy T*S    EENTRO =        -0.00000036
  eigenvalues    EBANDS =         6.87290215
  atomic energy  EATOM  =       206.13251344
  ---------------------------------------------------
  free energy    TOTEN  =        -8.89652519 eV

  energy without entropy =       -8.89652483  energy(sigma->0) =       -8.89652501


--------------------------------------------------------------------------------------------------------




----------------------------------------- Iteration    1(   7)  ---------------------------------------


     EDDAV:  cpu time    0.78: real time    0.78
       DOS:  cpu time    0.00: real time    0.00
    --------------------------------------------
      LOOP:  cpu time    0.78: real time    0.79

 eigenvalue-minimisations  :  4088
 total energy-change (2. order) : 0.6458549E-09  (-0.6614986E-10)
 number of electron       8.0000004 magnetization 
 augmentation part        8.0000004 magnetization 

 Free energy of the ion-electron system (eV)
  ---------------------------------------------------
  alpha Z        PSCENC =         3.29319482
  Ewald energy   TEWEN  =      -226.94523405
  -1/2 Hartree   DENC   =       -15.17067378
  -exchange  EXHF       =         0.00000000
  -V(xc)+E(xc)   XCENC  =       -18.06039216
  PAW double counting   =       829.54265742     -794.56149267
  entropy T*S    EENTRO =        -0.00000036
  eigenvalues    EBANDS =         6.87290215
  atomic energy  EATOM  =       206.13251344
  ---------------------------------------------------
  free energy    TOTEN  =        -8.89652519 eV

  energy without entropy =       -8.89652483  energy(sigma->0) =       -8.89652501


--------------------------------------------------------------------------------------------------------




----------------------------------------- Iteration    1(   8)  ---------------------------------------


     EDDAV:  cpu time    0.67: real time    0.67
       DOS:  cpu time    0.00: real time    0.00
    --------------------------------------------
      LOOP:  cpu time    0.67: real time    0.68

 eigenvalue-minimisations  :  3204
 total energy-change (2. order) :-0.7022436E-09  (-0.1077507E-10)
 number of electron       8.0000004 magnetization 
 augmentation part        8.0000004 magnetization 

 Free energy of the ion-electron system (eV)
  ---------------------------------------------------
  alpha Z        PSCENC =         3.29319482
  Ewald energy   TEWEN  =      -226.94523405
  -1/2 Hartree   DENC   =       -15.17067378
  -exchange  EXHF       =         0.00000000
  -V(xc)+E(xc)   XCENC  =       -18.06039216
  PAW double counting   =       829.54265742     -794.56149267
  entropy T*S    EENTRO =        -0.00000036
  eigenvalues    EBANDS =         6.87290215
  atomic energy  EATOM  =       206.13251344
  ---------------------------------------------------
  free energy    TOTEN  =        -8.89652519 eV

  energy without entropy =       -8.89652483  energy(sigma->0) =       -8.89652501


--------------------------------------------------------------------------------------------------------




 average (electrostatic) potential at core
  the test charge radii are     0.9892
  (the norm of the test charge is              1.0000)
       1 -83.4829       2 -83.4828
 
 
 
 E-fermi :   5.9319     XC(G=0):  -9.3274     alpha+bet :-11.7318


 k-point   1 :       0.0000    0.0000    0.0000
  band No.  band energies     occupation 
      1      -6.1988      2.00000
      2       5.6158      1.99999
      3       5.6158      1.99999
      4       5.6158      1.99999
      5       8.1728      0.00000
      6       8.1729      0.00000
      7       8.1729      0.00000
      8       8.7497      0.00000
      9      13.3252      0.00000
     10      13.3252      0.00000
     11      13.4937      0.00000
     12      16.7984      0.00000
     13      16.7984      0.00000
     14      16.7984      0.00000
     15      20.8902      0.00000
     16      28.4702      0.00000
     17      28.4702      0.00000
     18      28.4702      0.00000
     19      29.5513      0.00000
     20      29.5513      0.00000

 k-point   2 :       0.0250    0.0000    0.0250
  band No.  band energies     occupation 
      1      -6.1881      2.00000
      2       5.5387      2.00000
      3       5.5703      2.00000
      4       5.5703      2.00000
      5       8.1462      0.00000
      6       8.2316      0.00000
      7       8.2316      0.00000
      8       8.8253      0.00000
      9      13.2376      0.00000
     10      13.3371      0.00000
     11      13.5417      0.00000
     12      16.8172      0.00000
     13      16.8172      0.00000
     14      16.8598      0.00000
     15      20.9688      0.00000
     16      28.2952      0.00000
     17      28.2952      0.00000
     18      28.4840      0.00000
     19      29.4114      0.00000
     20      29.4478      0.00000

 k-point   3 :       0.0500    0.0000    0.0500
  band No.  band energies     occupation 
      1      -6.1558      2.00000
      2       5.3272      2.00000
      3       5.4452      2.00000
      4       5.4452      2.00000
      5       8.0694      0.00000
      6       8.3964      0.00000
      7       8.3964      0.00000
      8       9.0290      0.00000
      9      13.0026      0.00000
     10      13.3729      0.00000
     11      13.6826      0.00000
     12      16.8736      0.00000
     13      16.8736      0.00000
     14      17.0220      0.00000
     15      21.2010      0.00000
     16      27.8557      0.00000
     17      27.8557      0.00000
     18      28.5255      0.00000
     19      29.0337      0.00000
     20      29.1839      0.00000

 k-point   4 :       0.0750    0.0000    0.0750
  band No.  band energies     occupation 
      1      -6.1021      2.00000
      2       5.0225      2.00000
      3       5.2653      2.00000
      4       5.2653      2.00000
      5       7.9508      0.00000
      6       8.6423      0.00000
      7       8.6423      0.00000
      8       9.3091      0.00000
      9      12.6832      0.00000
     10      13.4326      0.00000
     11      13.9076      0.00000
     12      16.9673      0.00000
     13      16.9673      0.00000
     14      17.2419      0.00000
     15      21.5765      0.00000
     16      27.2803      0.00000
     17      27.2803      0.00000
     18      28.5009      0.00000
     19      28.5956      0.00000
     20      28.8290      0.00000

 k-point   5 :       0.1000    0.0000    0.1000
  band No.  band energies     occupation 
      1      -6.0271      2.00000
      2       4.6602      2.00000
      3       5.0544      2.00000
      4       5.0544      2.00000
      5       7.8012      0.00000
      6       8.9452      0.00000
      7       8.9452      0.00000
      8       9.6044      0.00000
      9      12.3528      0.00000
     10      13.5161      0.00000
     11      14.2053      0.00000
     12      17.0980      0.00000
     13      17.0980      0.00000
     14      17.4871      0.00000
     15      22.0776      0.00000
     16      26.6433      0.00000
     17      26.6433      0.00000
     18      27.8806      0.00000
     19      28.4230      0.00000
     20      28.6964      0.00000

 k-point   6 :       0.1250    0.0000    0.1250
  band No.  band energies     occupation 
      1      -5.9307      2.00000
      2       4.2637      2.00000
      3       4.8294      2.00000
      4       4.8294      2.00000
      5       7.6316      0.00000
      6       9.2877      0.00000
      7       9.2877      0.00000
      8       9.8362      0.00000
      9      12.1003      0.00000
     10      13.6234      0.00000
     11      14.5640      0.00000
     12      17.2649      0.00000
     13      17.2649      0.00000
     14      17.7433      0.00000
     15      22.6812      0.00000
     16      25.9811      0.00000
     17      25.9811      0.00000
     18      27.2149      0.00000
     19      27.9860      0.00000
     20      28.8307      0.00000

 k-point   7 :       0.1500    0.0000    0.1500
  band No.  band energies     occupation 
      1      -5.8133      2.00000
      2       3.8469      2.00000
      3       4.6013      2.00000
      4       4.6013      2.00000
      5       7.4519      0.00000
      6       9.6585      0.00000
      7       9.6585      0.00000
      8       9.9029      0.00000
      9      12.0348      0.00000
     10      13.7546      0.00000
     11      14.9725      0.00000
     12      17.4667      0.00000
     13      17.4667      0.00000
     14      18.0085      0.00000
     15      23.3625      0.00000
     16      25.3136      0.00000
     17      25.3136      0.00000
     18      26.5280      0.00000
     19      27.5300      0.00000
     20      29.0033      0.00000

 k-point   8 :       0.1750    0.0000    0.1750
  band No.  band energies     occupation 
      1      -5.6749      2.00000
      2       3.4177      2.00000
      3       4.3772      2.00000
      4       4.3772      2.00000
      5       7.2701      0.00000
      6       9.7581      0.00000
      7      10.0499      0.00000
      8      10.0499      0.00000
      9      12.2076      0.00000
     10      13.9095      0.00000
     11      15.4210      0.00000
     12      17.7010      0.00000
     13      17.7010      0.00000
     14      18.2864      0.00000
     15      24.0962      0.00000
     16      24.6536      0.00000
     17      24.6536      0.00000
     18      25.8346      0.00000
     19      27.0636      0.00000
     20      29.2213      0.00000

 k-point   9 :       0.2000    0.0000    0.2000
  band No.  band energies     occupation 
      1      -5.5158      2.00000
      2       2.9812      2.00000
      3       4.1616      2.00000
      4       4.1616      2.00000
      5       7.0923      0.00000
      6       9.4691      0.00000
      7      10.4570      0.00000
      8      10.4570      0.00000
      9      12.5548      0.00000
     10      14.0882      0.00000
     11      15.9007      0.00000
     12      17.9634      0.00000
     13      17.9634      0.00000
     14      18.5820      0.00000
     15      24.0118      0.00000
     16      24.0118      0.00000
     17      24.8568      0.00000
     18      25.1431      0.00000
     19      26.5943      0.00000
     20      29.4957      0.00000

 k-point  10 :       0.2250    0.0000    0.2250
  band No.  band energies     occupation 
      1      -5.3361      2.00000
      2       2.5404      2.00000
      3       3.9576      2.00000
      4       3.9576      2.00000
      5       6.9236      0.00000
      6       9.1183      0.00000
      7      10.8764      0.00000
      8      10.8764      0.00000
      9      12.9958      0.00000
     10      14.2905      0.00000
     11      16.4027      0.00000
     12      18.2460      0.00000
     13      18.2460      0.00000
     14      18.9001      0.00000
     15      23.4000      0.00000
     16      23.4000      0.00000
     17      24.4596      0.00000
     18      25.6169      0.00000
     19      26.1297      0.00000
     20      29.8416      0.00000

 k-point  11 :       0.2500    0.0000    0.2500
  band No.  band energies     occupation 
      1      -5.1363      2.00000
      2       2.0975      2.00000
      3       3.7674      2.00000
      4       3.7674      2.00000
      5       6.7676      0.00000
      6       8.7519      0.00000
      7      11.3056      0.00000
      8      11.3056      0.00000
      9      13.4847      0.00000
     10      14.5165      0.00000
     11      16.9176      0.00000
     12      18.5338      0.00000
     13      18.5338      0.00000
     14      19.2450      0.00000
     15      22.8357      0.00000
     16      22.8357      0.00000
     17      23.7876      0.00000
     18      25.6783      0.00000
     19      26.3471      0.00000
     20      30.2780      0.00000

 k-point  12 :       0.2750    0.0000    0.2750
  band No.  band energies     occupation 
      1      -4.9166      2.00000
      2       1.6542      2.00000
      3       3.5923      2.00000
      4       3.5923      2.00000
      5       6.6275      0.00000
      6       8.3928      0.00000
      7      11.7429      0.00000
      8      11.7429      0.00000
      9      13.9982      0.00000
     10      14.7661      0.00000
     11      17.4334      0.00000
     12      18.7973      0.00000
     13      18.7973      0.00000
     14      19.6200      0.00000
     15      22.3498      0.00000
     16      22.3498      0.00000
     17      23.1299      0.00000
     18      25.2508      0.00000
     19      27.0188      0.00000
     20      30.8217      0.00000

 k-point  13 :       0.3000    0.0000    0.3000
  band No.  band energies     occupation 
      1      -4.6774      2.00000
      2       1.2118      2.00000
      3       3.4337      2.00000
      4       3.4337      2.00000
      5       6.5055      0.00000
      6       8.0523      0.00000
      7      12.1872      0.00000
      8      12.1872      0.00000
      9      14.5235      0.00000
     10      15.0393      0.00000
     11      17.9344      0.00000
     12      18.9816      0.00000
     13      18.9816      0.00000
     14      20.0278      0.00000
     15      21.9980      0.00000
     16      21.9980      0.00000
     17      22.4884      0.00000
     18      24.8620      0.00000
     19      27.6130      0.00000
     20      30.7842      0.00000

 k-point  14 :       0.3250    0.0000    0.3250
  band No.  band energies     occupation 
      1      -4.4192      2.00000
      2       0.7717      2.00000
      3       3.2922      2.00000
      4       3.2922      2.00000
      5       6.4036      0.00000
      6       7.7367      0.00000
      7      12.6375      0.00000
      8      12.6375      0.00000
      9      15.0525      0.00000
     10      15.3358      0.00000
     11      18.3980      0.00000
     12      19.0085      0.00000
     13      19.0085      0.00000
     14      20.4701      0.00000
     15      21.8586      0.00000
     16      21.8586      0.00000
     17      21.8644      0.00000
     18      24.5326      0.00000
     19      28.1264      0.00000
     20      30.1928      0.00000

 k-point  15 :       0.3500    0.0000    0.3500
  band No.  band energies     occupation 
      1      -4.1424      2.00000
      2       0.3352      2.00000
      3       3.1686      2.00000
      4       3.1686      2.00000
      5       6.3235      0.00000
      6       7.4493      0.00000
      7      13.0931      0.00000
      8      13.0931      0.00000
      9      15.5792      0.00000
     10      15.6558      0.00000
     11      18.7925      0.00000
     12      18.8342      0.00000
     13      18.8342      0.00000
     14      20.9480      0.00000
     15      21.2592      0.00000
     16      21.9751      0.00000
     17      21.9751      0.00000
     18      24.2915      0.00000
     19      28.5684      0.00000
     20      29.5198      0.00000

 k-point  16 :       0.3750    0.0000    0.3750
  band No.  band energies     occupation 
      1      -3.8478      2.00000
      2      -0.0962      2.00000
      3       3.0633      2.00000
      4       3.0633      2.00000
      5       6.2665      0.00000
      6       7.1920      0.00000
      7      13.5533      0.00000
      8      13.5533      0.00000
      9      15.9989      0.00000
     10      16.0987      0.00000
     11      18.5004      0.00000
     12      18.5004      0.00000
     13      19.0787      0.00000
     14      20.6736      0.00000
     15      21.4610      0.00000
     16      22.3053      0.00000
     17      22.3053      0.00000
     18      24.1726      0.00000
     19      28.8051      0.00000
     20      28.9446      0.00000

 k-point  17 :       0.4000    0.0000    0.4000
  band No.  band energies     occupation 
      1      -3.5358      2.00000
      2      -0.5212      2.00000
      3       2.9767      2.00000
      4       2.9767      2.00000
      5       6.2339      0.00002
      6       6.9655      0.00000
      7      14.0164      0.00000
      8      14.0164      0.00000
      9      16.3653      0.00000
     10      16.6068      0.00000
     11      18.0782      0.00000
     12      18.0782      0.00000
     13      19.2200      0.00000
     14      20.1082      0.00000
     15      22.0073      0.00000
     16      22.7779      0.00000
     17      22.7779      0.00000
     18      24.2014      0.00000
     19      28.0869      0.00000
     20      28.6018      0.00000

 k-point  18 :       0.4250    0.0000    0.4250
  band No.  band energies     occupation 
      1      -3.2072      2.00000
      2      -0.9385      2.00000
      3       2.9091      2.00000
      4       2.9091      2.00000
[...]
      9      13.3373      0.00000
     10      13.7088      0.00000
     11      20.2238      0.00000
     12      20.7520      0.00000
     13      20.8955      0.00000
     14      20.9571      0.00000
     15      21.4278      0.00000
     16      23.0692      0.00000
     17      24.0827      0.00000
     18      25.3999      0.00000
     19      27.3453      0.00000
     20      27.6398      0.00000

 k-point  96 :       0.3750    0.3750    0.7500
  band No.  band energies     occupation 
      1      -2.5452      2.00000
      2      -1.5480      2.00000
      3       1.4155      2.00000
      4       3.2403      2.00000
      5       6.8503      0.00000
      6       9.7282      0.00000
      7      12.9969      0.00000
      8      13.5323      0.00000
      9      13.6990      0.00000
     10      14.0964      0.00000
     11      20.1179      0.00000
     12      20.3818      0.00000
     13      20.9105      0.00000
     14      21.1468      0.00000
     15      21.3552      0.00000
     16      22.4605      0.00000
     17      25.0012      0.00000
     18      25.3606      0.00000
     19      26.9146      0.00000
     20      27.0409      0.00000

 k-point  97 :       0.3833    0.3500    0.7333
  band No.  band energies     occupation 
      1      -2.6123      2.00000
      2      -1.4724      2.00000
      3       1.3737      2.00000
      4       3.2343      2.00000
      5       7.0076      0.00000
      6      10.0677      0.00000
      7      12.5685      0.00000
      8      13.1690      0.00000
      9      13.5509      0.00000
     10      14.2925      0.00000
     11      19.9183      0.00000
     12      20.6340      0.00000
     13      20.8848      0.00000
     14      21.2296      0.00000
     15      21.3984      0.00000
     16      22.7929      0.00000
     17      24.5948      0.00000
     18      25.2757      0.00000
     19      27.0735      0.00000
     20      27.1965      0.00000

 k-point  98 :       0.3917    0.3250    0.7167
  band No.  band energies     occupation 
      1      -2.6668      2.00000
      2      -1.4014      2.00000
      3       1.3621      2.00000
      4       3.1279      2.00000
      5       7.3348      0.00000
      6      10.4154      0.00000
      7      12.0023      0.00000
      8      12.4989      0.00000
      9      13.7251      0.00000
     10      14.6435      0.00000
     11      19.6214      0.00000
     12      20.5429      0.00000
     13      20.6588      0.00000
     14      21.5324      0.00000
     15      21.8157      0.00000
     16      23.2755      0.00000
     17      24.1864      0.00000
     18      25.0703      0.00000
     19      26.8942      0.00000
     20      27.5147      0.00000

 k-point  99 :       0.4000    0.3000    0.7000
  band No.  band energies     occupation 
      1      -2.7087      2.00000
      2      -1.3377      2.00000
      3       1.3808      2.00000
      4       2.9631      2.00000
      5       7.7908      0.00000
      6      10.7115      0.00000
      7      11.4932      0.00000
      8      11.8318      0.00000
      9      13.9211      0.00000
     10      15.0079      0.00000
     11      19.3164      0.00000
     12      20.4294      0.00000
     13      20.4360      0.00000
     14      21.6325      0.00000
     15      22.4594      0.00000
     16      23.8077      0.00000
     17      23.8286      0.00000
     18      24.8444      0.00000
     19      26.6735      0.00000
     20      27.2552      0.00000

 k-point 100 :       0.4083    0.2750    0.6833
  band No.  band energies     occupation 
      1      -2.7377      2.00000
      2      -1.2854      2.00000
      3       1.4288      2.00000
      4       2.7802      2.00000
      5       8.3362      0.00000
      6      10.5783      0.00000
      7      11.1828      0.00000
      8      11.4385      0.00000
      9      14.1201      0.00000
     10      15.3698      0.00000
     11      19.0125      0.00000
     12      20.2124      0.00000
     13      20.3836      0.00000
     14      21.7303      0.00000
     15      22.8643      0.00000
     16      23.6796      0.00000
     17      24.3446      0.00000
     18      24.6880      0.00000
     19      26.4565      0.00000
     20      26.7103      0.00000

 k-point 101 :       0.4167    0.2500    0.6667
  band No.  band energies     occupation 
      1      -2.7533      2.00000
      2      -1.2502      2.00000
      3       1.5052      2.00000
      4       2.6092      2.00000
      5       8.9360      0.00000
      6      10.0681      0.00000
      7      10.5660      0.00000
      8      11.7925      0.00000
      9      14.3166      0.00000
     10      15.7182      0.00000
     11      18.7169      0.00000
     12      20.0061      0.00000
     13      20.3974      0.00000
     14      21.8485      0.00000
     15      22.6445      0.00000
     16      24.1731      0.00000
     17      24.3526      0.00000
     18      25.0424      0.00000
     19      26.0905      0.00000
     20      26.2564      0.00000

 k-point 102 :       0.4250    0.2250    0.6500
  band No.  band energies     occupation 
      1      -2.7552      2.00000
      2      -1.2379      2.00000
      3       1.6081      2.00000
      4       2.4709      2.00000
      5       9.4812      0.00000
      6       9.5174      0.00000
      7      10.0768      0.00000
      8      12.2221      0.00000
      9      14.5086      0.00000
     10      16.0406      0.00000
     11      18.4363      0.00000
     12      19.8073      0.00000
     13      20.4826      0.00000
     14      21.9974      0.00000
     15      22.2306      0.00000
     16      24.1789      0.00000
     17      24.8486      0.00000
     18      25.2913      0.00000
     19      25.6935      0.00000
     20      26.0780      0.00000

 k-point 103 :       0.4333    0.2000    0.6333
  band No.  band energies     occupation 
      1      -2.7429      2.00000
      2      -1.2537      2.00000
      3       1.7351      2.00000
      4       2.3786      2.00000
      5       8.9766      0.00000
      6       9.2552      0.00000
      7      10.4238      0.00000
      8      12.6791      0.00000
      9      14.6961      0.00000
     10      16.3234      0.00000
     11      18.1790      0.00000
     12      19.6132      0.00000
     13      20.6361      0.00000
     14      21.7890      0.00000
     15      22.1759      0.00000
     16      23.9512      0.00000
     17      24.7297      0.00000
     18      25.5274      0.00000
     19      25.9257      0.00000
     20      26.0867      0.00000

 k-point 104 :       0.4417    0.1750    0.6167
  band No.  band energies     occupation 
      1      -2.7162      2.00000
      2      -1.3002      2.00000
      3       1.8831      2.00000
      4       2.3389      2.00000
      5       8.4588      0.00000
      6       8.7345      0.00000
      7      11.1256      0.00000
      8      13.1519      0.00000
      9      14.8807      0.00000
     10      16.5496      0.00000
     11      17.9576      0.00000
     12      19.4223      0.00000
     13      20.8010      0.00000
     14      21.4033      0.00000
     15      22.3500      0.00000
     16      23.5281      0.00000
     17      24.3522      0.00000
     18      25.7774      0.00000
     19      26.1673      0.00000
     20      26.4138      0.00000

 k-point 105 :       0.4500    0.1500    0.6000
  band No.  band energies     occupation 
      1      -2.6747      2.00000
      2      -1.3763      2.00000
      3       2.0475      2.00000
      4       2.3513      2.00000
      5       7.9724      0.00000
      6       8.2246      0.00000
      7      11.8737      0.00000
      8      13.6321      0.00000
      9      15.0663      0.00000
     10      16.6965      0.00000
     11      17.7949      0.00000
     12      19.2341      0.00000
     13      20.6336      0.00000
     14      21.4232      0.00000
     15      22.2878      0.00000
     16      23.1440      0.00000
     17      24.2300      0.00000
     18      25.6657      0.00000
     19      26.5731      0.00000
     20      26.6176      0.00000

 k-point 106 :       0.4583    0.1250    0.5833
  band No.  band energies     occupation 
      1      -2.6185      2.00000
      2      -1.4776      2.00000
      3       2.2220      2.00000
      4       2.4093      2.00000
      5       7.5259      0.00000
      6       7.7501      0.00000
      7      12.6422      0.00000
      8      14.1086      0.00000
      9      15.2606      0.00000
     10      16.7392      0.00000
     11      17.7206      0.00000
     12      19.0492      0.00000
     13      20.1873      0.00000
     14      21.6811      0.00000
     15      21.7943      0.00000
     16      23.2613      0.00000
     17      24.2215      0.00000
     18      25.5653      0.00000
     19      26.5872      0.00000
     20      26.7188      0.00000

 k-point 107 :       0.4667    0.1000    0.5667
  band No.  band energies     occupation 
      1      -2.5476      2.00000
      2      -1.5974      2.00000
      3       2.3976      2.00000
      4       2.5007      2.00000
      5       7.1298      0.00000
      6       7.3223      0.00000
      7      13.4170      0.00000
      8      14.5612      0.00000
      9      15.4785      0.00000
     10      16.6819      0.00000
     11      17.7390      0.00000
     12      18.8681      0.00000
     13      19.6981      0.00000
     14      20.8950      0.00000
     15      22.2770      0.00000
     16      23.5595      0.00000
     17      24.2879      0.00000
     18      25.4710      0.00000
     19      26.5188      0.00000
     20      26.5253      0.00000

 k-point 108 :       0.4750    0.0750    0.5500
  band No.  band energies     occupation 
      1      -2.4624      2.00000
      2      -1.7286      2.00000
      3       2.5620      2.00000
      4       2.6090      2.00000
      5       6.7979      0.00000
      6       6.9534      0.00000
      7      14.1779      0.00000
      8      14.9557      0.00000
      9      15.7438      0.00000
     10      16.5722      0.00000
     11      17.8156      0.00000
     12      18.6904      0.00000
     13      19.2102      0.00000
     14      20.0880      0.00000
     15      22.8242      0.00000
     16      23.8746      0.00000
     17      24.4377      0.00000
     18      25.3716      0.00000
     19      26.2514      0.00000
     20      26.4051      0.00000

 k-point 109 :       0.4833    0.0500    0.5333
  band No.  band energies     occupation 
      1      -2.3636      2.00000
      2      -1.8647      2.00000
      3       2.6989      2.00000
      4       2.7139      2.00000
      5       6.5478      0.00000
      6       6.6589      0.00000
      7      14.8784      0.00000
      8      15.2577      0.00000
      9      16.0661      0.00000
     10      16.4701      0.00000
     11      17.9125      0.00000
     12      18.5110      0.00000
     13      18.7604      0.00000
     14      19.3204      0.00000
     15      23.4046      0.00000
     16      24.1304      0.00000
     17      24.6924      0.00000
     18      25.2603      0.00000
     19      25.9966      0.00000
     20      26.2223      0.00000

 k-point 110 :       0.4917    0.0250    0.5167
  band No.  band energies     occupation 
      1      -2.2523      2.00000
      2      -2.0001      2.00000
      3       2.7902      2.00000
      4       2.7921      2.00000
      5       6.3991      0.00000
      6       6.4576      0.00000
      7      15.3922      0.00000
      8      15.4628      0.00000
      9      16.3813      0.00000
     10      16.4565      0.00000
     11      17.9887      0.00000
     12      18.2993      0.00000
     13      18.4417      0.00000
     14      18.7022      0.00000
     15      23.9545      0.00000
     16      24.2937      0.00000
     17      25.0038      0.00000
     18      25.1677      0.00000
     19      25.7744      0.00000
     20      25.8795      0.00000

 k-point 111 :       0.5000    0.0000    0.5000
  band No.  band energies     occupation 
      1      -2.1303      2.00000
      2      -2.1303      2.00000
      3       2.8218      2.00000
      4       2.8218      2.00000
      5       6.3677      0.00000
      6       6.3677      0.00000
      7      15.5525      0.00000
      8      15.5525      0.00000
      9      16.5230      0.00000
     10      16.5230      0.00000
     11      18.0591      0.00000
     12      18.0591      0.00000
     13      18.4187      0.00000
     14      18.4187      0.00000
     15      24.2926      0.00000
     16      24.2926      0.00000
     17      25.1728      0.00000
     18      25.1728      0.00000
     19      25.6261      0.00000
     20      25.6261      0.00000


--------------------------------------------------------------------------------------------------------


 soft charge-density along one line, spin component           1
         0         1         2         3         4         5         6         7         8         9
 total charge-density along one line
 
 pseudopotential strength for first ion, spin component:           1
 18.437  25.723  -0.000  -0.000  -0.000  -0.000  -0.000  -0.000
 25.723  35.893  -0.000  -0.000  -0.000  -0.000  -0.000  -0.000
 -0.000  -0.000   4.181  -0.000  -0.000   7.791  -0.000  -0.000
 -0.000  -0.000  -0.000   4.181  -0.000  -0.000   7.791  -0.000
 -0.000  -0.000  -0.000  -0.000   4.181  -0.000  -0.000   7.791
 -0.000  -0.000   7.791  -0.000  -0.000  14.528  -0.000  -0.000
 -0.000  -0.000  -0.000   7.791  -0.000  -0.000  14.528  -0.000
 -0.000  -0.000  -0.000  -0.000   7.791  -0.000  -0.000  14.528
 total augmentation occupancy for first ion, spin component:           1
  2.000   0.000   0.000   0.000   0.000   0.000   0.000   0.000
  0.000   0.000   0.000   0.000   0.000   0.000   0.000   0.000
  0.000   0.000   0.667   0.000   0.000   0.000   0.000   0.000
  0.000   0.000   0.000   0.667   0.000   0.000   0.000   0.000
  0.000   0.000   0.000   0.000   0.667   0.000   0.000   0.000
  0.000   0.000   0.000   0.000   0.000   0.000   0.000   0.000
  0.000   0.000   0.000   0.000   0.000   0.000   0.000   0.000
  0.000   0.000   0.000   0.000   0.000   0.000   0.000   0.000


------------------------ aborting loop because EDIFF is reached ----------------------------------------


 


 total charge     
 
# of ion     s       p       d       tot
----------------------------------------
  1        0.708   0.980   0.000   1.688
  2        0.708   0.980   0.000   1.688
------------------------------------------------
tot        1.416   1.960   0.000   3.376
 
    CHARGE:  cpu time    0.02: real time    0.02
    FORLOC:  cpu time    0.00: real time    0.00
    FORNL :  cpu time    0.05: real time    0.05
    STRESS:  cpu time    0.11: real time    0.11
    FORCOR:  cpu time    0.00: real time    0.00
    FORHAR:  cpu time    0.00: real time    0.00

  FORCE on cell =-STRESS in cart. coord.  units (eV):
  Direction    XX          YY          ZZ          XY          YZ          ZX
  --------------------------------------------------------------------------------------
  Alpha Z     3.29319     3.29319     3.29319
  Ewald     -75.64845   -75.64845   -75.64845     0.00000     0.00000    -0.00000
  Hartree     5.46520     5.46520     5.46520     0.00000     0.00000     0.00000
  E(xc)     -25.27830   -25.27830   -25.27830    -0.00001    -0.00001    -0.00001
  Local     -30.33176   -30.33176   -30.33176     0.00007     0.00007     0.00007
  n-local    78.63668    74.37839    76.73652    -1.89093    -0.74229    -0.97595
  augment   -11.25644   -11.25644   -11.25644    -0.00006    -0.00006    -0.00006
  Kinetic    58.91624    57.37216    60.51955    -1.77531    -1.17817    -1.31411
  Fock        0.00000     0.00000     0.00000     0.00000     0.00000     0.00000
  -------------------------------------------------------------------------------------
  Total       1.76329     1.76329     1.76329     0.00000    -0.00000     0.00000
  in kB      69.09348    69.09348    69.09348     0.00000    -0.00000     0.00000
  external pressure =       69.09 kB  Pullay stress =        0.00 kB


 VOLUME and BASIS-vectors are now :
 -----------------------------------------------------------------------------
  energy-cutoff  :      500.00
  volume of cell :       40.89
      direct lattice vectors                 reciprocal lattice vectors
     0.000000000  2.734360000  2.734360000    -0.182858146  0.182858146  0.182858146
     2.734360000  0.000000000  2.734360000     0.182858146 -0.182858146  0.182858146
     2.734360000  2.734360000  0.000000000     0.182858146  0.182858146 -0.182858146

  length of vectors
     3.866968996  3.866968996  3.866968996     0.316719599  0.316719599  0.316719599


 FORCES acting on ions
    electron-ion (+dipol)            ewald-force                    non-local-force                 convergence-correction
 -----------------------------------------------------------------------------------------------
   -.147E-05 -.147E-05 -.117E-05   -.384E-14 -.429E-14 -.488E-14   -.208E-16 -.104E-16 0.625E-16   -.103E-08 -.103E-08 -.103E-08
   -.527E-05 -.527E-05 -.508E-05   0.393E-14 0.441E-14 0.496E-14   0.104E-16 -.347E-16 -.555E-16   0.984E-09 0.984E-09 0.988E-09
 -----------------------------------------------------------------------------------------------
   -.674E-05 -.674E-05 -.625E-05   0.877E-16 0.121E-15 0.790E-16   -.104E-16 -.451E-16 0.694E-17   -.476E-10 -.476E-10 -.453E-10
 
 
 POSITION                                       TOTAL-FORCE (eV/Angst)
 -----------------------------------------------------------------------------------
      0.00000      0.00000      0.00000         0.000000     -0.000000     -0.000000
      1.36718      1.36718      1.36718        -0.000000      0.000000      0.000000
 -----------------------------------------------------------------------------------
    total drift:                               -0.000007     -0.000007     -0.000006


--------------------------------------------------------------------------------------------------------



  FREE ENERGIE OF THE ION-ELECTRON SYSTEM (eV)
  ---------------------------------------------------
  free  energy   TOTEN  =        -8.89652519 eV

  energy  without entropy=       -8.89652483  energy(sigma->0) =       -8.89652501
 


--------------------------------------------------------------------------------------------------------


    POTLOK:  cpu time    0.00: real time    0.00


--------------------------------------------------------------------------------------------------------


     LOOP+:  cpu time    7.46: real time    7.50
    4ORBIT:  cpu time    0.00: real time    0.00
 


 total charge     
 
# of ion     s       p       d       tot
----------------------------------------
  1        0.708   0.980   0.000   1.688
  2        0.708   0.980   0.000   1.688
------------------------------------------------
tot        1.416   1.960   0.000   3.376
 

 total amount of memory used by VASP on root node    33467. kBytes
========================================================================

   base      :      30000. kBytes
   nonl-proj :        485. kBytes
   fftplans  :        127. kBytes
   grid      :        153. kBytes
   one-center:          3. kBytes
   wavefun   :       2699. kBytes
 
  
  
 General timing and accounting informations for this job:
 ========================================================
  
                  Total CPU time used (sec):        8.289
                            User time (sec):        7.892
                          System time (sec):        0.396
                         Elapsed time (sec):        8.380
  
                   Maximum memory used (kb):       34236.
                   Average memory used (kb):           0.
  
                          Minor page faults:         8822
                          Major page faults:            0
                 Voluntary context switches:         2147
