PROCAR lm decomposed
# of k-points:  111         # of bands:  20         # of ions:   2

 k-point    1 :    0.00000000 0.00000000 0.00000000     weight = 0.00900901

band   1 # energy   -6.19881585 # occ.  2.00000000
 
ion      s     py     pz     px    dxy    dyz    dz2    dxz    dx2    tot
  1  0.212  0.000  0.000  0.000  0.000  0.000  0.000  0.000  0.000  0.212
  2  0.212  0.000  0.000  0.000  0.000  0.000  0.000  0.000  0.000  0.212
tot  0.424  0.000  0.000  0.000  0.000  0.000  0.000  0.000  0.000  0.424
 
band   2 # energy    5.61580130 # occ.  1.99999219
 
ion      s     py     pz     px    dxy    dyz    dz2    dxz    dx2    tot
  1  0.000  0.071  0.071  0.071  0.000  0.000  0.000  0.000  0.000  0.214
  2  0.000  0.071  0.071  0.071  0.000  0.000  0.000  0.000  0.000  0.214
tot  0.000  0.143  0.143  0.143  0.000  0.000  0.000  0.000  0.000  0.428
 
band   3 # energy    5.61581692 # occ.  1.99999219
 
ion      s     py     pz     px    dxy    dyz    dz2    dxz    dx2    tot
  1  0.000  0.041  0.127  0.045  0.000  0.000  0.000  0.000  0.000  0.214
  2  0.000  0.041  0.127  0.045  0.000  0.000  0.000  0.000  0.000  0.214
tot  0.000  0.083  0.255  0.090  0.000  0.000  0.000  0.000  0.000  0.428
 
band   4 # energy    5.61581692 # occ.  1.99999219
 
ion      s     py     pz     px    dxy    dyz    dz2    dxz    dx2    tot
  1  0.000  0.101  0.015  0.098  0.000  0.000  0.000  0.000  0.000  0.214
  2  0.000  0.101  0.015  0.098  0.000  0.000  0.000  0.000  0.000  0.214
tot  0.000  0.202  0.030  0.195  0.000  0.000  0.000  0.000  0.000  0.428
 
band   5 # energy    8.17284430 # occ.  0.00000000
 
ion      s     py     pz     px    dxy    dyz    dz2    dxz    dx2    tot
  1  0.000  0.050  0.050  0.050  0.000  0.000  0.000  0.000  0.000  0.151
  2  0.000  0.050  0.050  0.050  0.000  0.000  0.000  0.000  0.000  0.151
tot  0.000  0.100  0.100  0.100  0.000  0.000  0.000  0.000  0.000  0.301
 
band   6 # energy    8.17285486 # occ.  0.00000000
 
ion      s     py     pz     px    dxy    dyz    dz2    dxz    dx2    tot
  1  0.000  0.076  0.000  0.075  0.000  0.000  0.000  0.000  0.000  0.151
  2  0.000  0.076  0.000  0.075  0.000  0.000  0.000  0.000  0.000  0.151
tot  0.000  0.151  0.000  0.150  0.000  0.000  0.000  0.000  0.000  0.301
 
band   7 # energy    8.17285486 # occ.  0.00000000
 
ion      s     py     pz     px    dxy    dyz    dz2    dxz    dx2    tot
  1  0.000  0.025  0.100  0.026  0.000  0.000  0.000  0.000  0.000  0.151
  2  0.000  0.025  0.100  0.026  0.000  0.000  0.000  0.000  0.000  0.151
tot  0.000  0.050  0.201  0.051  0.000  0.000  0.000  0.000  0.000  0.301
 
band   8 # energy    8.74971870 # occ.  0.00000000
 
ion      s     py     pz     px    dxy    dyz    dz2    dxz    dx2    tot
  1  0.359  0.000  0.000  0.000  0.000  0.000  0.000  0.000  0.000  0.359
  2  0.359  0.000  0.000  0.000  0.000  0.000  0.000  0.000  0.000  0.359
tot  0.717  0.000  0.000  0.000  0.000  0.000  0.000  0.000  0.000  0.717
 
band   9 # energy   13.32516393 # occ.  0.00000000
 
ion      s     py     pz     px    dxy    dyz    dz2    dxz    dx2    tot
  1  0.000  0.000  0.000  0.000  0.000  0.000  0.000  0.000  0.000  0.000
  2  0.000  0.000  0.000  0.000  0.000  0.000  0.000  0.000  0.000  0.000
tot  0.000  0.000  0.000  0.000  0.000  0.000  0.000  0.000  0.000  0.000
 
band  10 # energy   13.32516393 # occ.  0.00000000
 
ion      s     py     pz     px    dxy    dyz    dz2    dxz    dx2    tot
  1  0.000  0.000  0.000  0.000  0.000  0.000  0.000  0.000  0.000  0.000
  2  0.000  0.000  0.000  0.000  0.000  0.000  0.000  0.000  0.000  0.000
tot  0.000  0.000  0.000  0.000  0.000  0.000  0.000  0.000  0.000  0.000
 
band  11 # energy   13.49371390 # occ.  0.00000000
 
ion      s     py     pz     px    dxy    dyz    dz2    dxz    dx2    tot
  1  0.100  0.000  0.000  0.000  0.000  0.000  0.000  0.000  0.000  0.100
  2  0.100  0.000  0.000  0.000  0.000  0.000  0.000  0.000  0.000  0.100
tot  0.201  0.000  0.000  0.000  0.000  0.000  0.000  0.000  0.000  0.201
 
band  12 # energy   16.79842397 # occ.  0.00000000
 
ion      s     py     pz     px    dxy    dyz    dz2    dxz    dx2    tot
  1  0.000  0.013  0.013  0.013  0.000  0.000  0.000  0.000  0.000  0.039
  2  0.000  0.013  0.013  0.013  0.000  0.000  0.000  0.000  0.000  0.039
tot  0.000  0.026  0.026  0.026  0.000  0.000  0.000  0.000  0.000  0.078
 
band  13 # energy   16.79842850 # occ.  0.00000000
 
ion      s     py     pz     px    dxy    dyz    dz2    dxz    dx2    tot
  1  0.000  0.008  0.025  0.006  0.000  0.000  0.000  0.000  0.000  0.039
  2  0.000  0.008  0.025  0.006  0.000  0.000  0.000  0.000  0.000  0.039
tot  0.000  0.017  0.050  0.012  0.000  0.000  0.000  0.000  0.000  0.078
 
band  14 # energy   16.79842850 # occ.  0.00000000
 
ion      s     py     pz     px    dxy    dyz    dz2    dxz    dx2    tot
  1  0.000  0.018  0.001  0.020  0.000  0.000  0.000  0.000  0.000  0.039
  2  0.000  0.018  0.001  0.020  0.000  0.000  0.000  0.000  0.000  0.039
tot  0.000  0.036  0.002  0.041  0.000  0.000  0.000  0.000  0.000  0.078
 
band  15 # energy   20.89024039 # occ.  0.00000000
 
ion      s     py     pz     px    dxy    dyz    dz2    dxz    dx2    tot
  1  0.037  0.000  0.000  0.000  0.000  0.000  0.000  0.000  0.000  0.037
  2  0.037  0.000  0.000  0.000  0.000  0.000  0.000  0.000  0.000  0.037
tot  0.075  0.000  0.000  0.000  0.000  0.000  0.000  0.000  0.000  0.075
 
band  16 # energy   28.47022894 # occ.  0.00000000
 
ion      s     py     pz     px    dxy    dyz    dz2    dxz    dx2    tot
  1  0.000  0.003  0.003  0.003  0.000  0.000  0.000  0.000  0.000  0.010
  2  0.000  0.003  0.003  0.003  0.000  0.000  0.000  0.000  0.000  0.010
tot  0.000  0.007  0.007  0.007  0.000  0.000  0.000  0.000  0.000  0.020
 
band  17 # energy   28.47023199 # occ.  0.00000000
 
ion      s     py     pz     px    dxy    dyz    dz2    dxz    dx2    tot
  1  0.000  0.003  0.004  0.003  0.000  0.000  0.000  0.000  0.000  0.010
  2  0.000  0.003  0.004  0.003  0.000  0.000  0.000  0.000  0.000  0.010
tot  0.000  0.006  0.007  0.007  0.000  0.000  0.000  0.000  0.000  0.020
 
band  18 # energy   28.47023199 # occ.  0.00000000
 
ion      s     py     pz     px    dxy    dyz    dz2    dxz    dx2    tot
  1  0.000  0.004  0.003  0.003  0.000  0.000  0.000  0.000  0.000  0.010
  2  0.000  0.004  0.003  0.003  0.000  0.000  0.000  0.000  0.000  0.010
tot  0.000  0.007  0.006  0.007  0.000  0.000  0.000  0.000  0.000  0.020
 
band  19 # energy   29.55128559 # occ.  0.00000000
 
ion      s     py     pz     px    dxy    dyz    dz2    dxz    dx2    tot
  1  0.000  0.000  0.000  0.000  0.000  0.000  0.000  0.000  0.000  0.000
  2  0.000  0.000  0.000  0.000  0.000  0.000  0.000  0.000  0.000  0.000
tot  0.000  0.000  0.000  0.000  0.000  0.000  0.000  0.000  0.000  0.000
 
band  20 # energy   29.55128560 # occ.  0.00000000
 
ion      s     py     pz     px    dxy    dyz    dz2    dxz    dx2    tot
  1  0.000  0.000  0.000  0.000  0.000  0.000  0.000  0.000  0.000  0.000
  2  0.000  0.000  0.000  0.000  0.000  0.000  0.000  0.000  0.000  0.000
tot  0.000  0.000  0.000  0.000  0.000  0.000  0.000  0.000  0.000  0.000
 

 k-point    2 :    0.02500000 0.00000000 0.02500000     weight = 0.00900901

band   1 # energy   -6.18806865 # occ.  2.00000000
 
ion      s     py     pz     px    dxy    dyz    dz2    dxz    dx2    tot
  1  0.212  0.000  0.000  0.000  0.000  0.000  0.000  0.000  0.000  0.212
  2  0.212  0.000  0.000  0.000  0.000  0.000  0.000  0.000  0.000  0.212
tot  0.424  0.000  0.000  0.000  0.000  0.000  0.000  0.000  0.000  0.424
 
band   2 # energy    5.53865121 # occ.  1.99999997
 
ion      s     py     pz     px    dxy    dyz    dz2    dxz    dx2    tot
  1  0.010  0.207  0.000  0.000  0.000  0.000  0.000  0.000  0.000  0.217
  2  0.010  0.207  0.000  0.000  0.000  0.000  0.000  0.000  0.000  0.217
tot  0.019  0.414  0.000  0.000  0.000  0.000  0.000  0.000  0.000  0.434
 
band   3 # energy    5.57029871 # occ.  1.99999968
 
ion      s     py     pz     px    dxy    dyz    dz2    dxz    dx2    tot
  1  0.000  0.000  0.106  0.106  0.000  0.000  0.000  0.000  0.000  0.213
  2  0.000  0.000  0.106  0.106  0.000  0.000  0.000  0.000  0.000  0.213
tot  0.000  0.000  0.213  0.213  0.000  0.000  0.000  0.000  0.000  0.425
 
band   4 # energy    5.57030903 # occ.  1.99999968
 
ion      s     py     pz     px    dxy    dyz    dz2    dxz    dx2    tot
  1  0.000  0.000  0.106  0.106  0.000  0.000  0.000  0.000  0.000  0.213
  2  0.000  0.000  0.106  0.106  0.000  0.000  0.000  0.000  0.000  0.213
tot  0.000  0.000  0.213  0.213  0.000  0.000  0.000  0.000  0.000  0.425
 
band   5 # energy    8.14620603 # occ.  0.00000000
 
ion      s     py     pz     px    dxy    dyz    dz2    dxz    dx2    tot
  1  0.001  0.149  0.000  0.000  0.000  0.000  0.000  0.000  0.000  0.150
  2  0.001  0.149  0.000  0.000  0.000  0.000  0.000  0.000  0.000  0.150
tot  0.002  0.298  0.000  0.000  0.000  0.000  0.000  0.000  0.000  0.300
 
band   6 # energy    8.23161601 # occ.  0.00000000
 
ion      s     py     pz     px    dxy    dyz    dz2    dxz    dx2    tot
  1  0.000  0.000  0.076  0.076  0.000  0.000  0.000  0.000  0.000  0.152
  2  0.000  0.000  0.076  0.076  0.000  0.000  0.000  0.000  0.000  0.152
tot  0.000  0.000  0.152  0.152  0.000  0.000  0.000  0.000  0.000  0.304
 
band   7 # energy    8.23162314 # occ.  0.00000000
 
ion      s     py     pz     px    dxy    dyz    dz2    dxz    dx2    tot
  1  0.000  0.000  0.076  0.076  0.000  0.000  0.000  0.000  0.000  0.152
  2  0.000  0.000  0.076  0.076  0.000  0.000  0.000  0.000  0.000  0.152
tot  0.000  0.000  0.152  0.152  0.000  0.000  0.000  0.000  0.000  0.304
 
band   8 # energy    8.82528837 # occ.  0.00000000
 
ion      s     py     pz     px    dxy    dyz    dz2    dxz    dx2    tot
  1  0.349  0.007  0.000  0.000  0.000  0.000  0.000  0.000  0.000  0.356
  2  0.349  0.007  0.000  0.000  0.000  0.000  0.000  0.000  0.000  0.356
tot  0.697  0.014  0.000  0.000  0.000  0.000  0.000  0.000  0.000  0.712
 
band   9 # energy   13.23756775 # occ.  0.00000000
 
ion      s     py     pz     px    dxy    dyz    dz2    dxz    dx2    tot
  1  0.000  0.000  0.000  0.000  0.000  0.000  0.000  0.000  0.000  0.000
  2  0.000  0.000  0.000  0.000  0.000  0.000  0.000  0.000  0.000  0.000
tot  0.000  0.001  0.000  0.000  0.000  0.000  0.000  0.000  0.000  0.001
 
band  10 # energy   13.33709826 # occ.  0.00000000
 
ion      s     py     pz     px    dxy    dyz    dz2    dxz    dx2    tot
  1  0.000  0.000  0.000  0.000  0.000  0.000  0.000  0.000  0.000  0.000
  2  0.000  0.000  0.000  0.000  0.000  0.000  0.000  0.000  0.000  0.000
tot  0.000  0.000  0.000  0.000  0.000  0.000  0.000  0.000  0.000  0.000
 
band  11 # energy   13.54174797 # occ.  0.00000000
 
ion      s     py     pz     px    dxy    dyz    dz2    dxz    dx2    tot
  1  0.099  0.002  0.000  0.000  0.000  0.000  0.000  0.000  0.000  0.101
  2  0.099  0.002  0.000  0.000  0.000  0.000  0.000  0.000  0.000  0.101
tot  0.198  0.004  0.000  0.000  0.000  0.000  0.000  0.000  0.000  0.202
 
band  12 # energy   16.81724020 # occ.  0.00000000
 
ion      s     py     pz     px    dxy    dyz    dz2    dxz    dx2    tot
  1  0.000  0.000  0.020  0.020  0.000  0.000  0.000  0.000  0.000  0.039
  2  0.000  0.000  0.020  0.020  0.000  0.000  0.000  0.000  0.000  0.039
tot  0.000  0.000  0.039  0.039  0.000  0.000  0.000  0.000  0.000  0.078
 
band  13 # energy   16.81724321 # occ.  0.00000000
 
ion      s     py     pz     px    dxy    dyz    dz2    dxz    dx2    tot
  1  0.000  0.000  0.020  0.020  0.000  0.000  0.000  0.000  0.000  0.039
  2  0.000  0.000  0.020  0.020  0.000  0.000  0.000  0.000  0.000  0.039
tot  0.000  0.000  0.039  0.039  0.000  0.000  0.000  0.000  0.000  0.078
 
band  14 # energy   16.85979323 # occ.  0.00000000
 
ion      s     py     pz     px    dxy    dyz    dz2    dxz    dx2    tot
  1  0.001  0.037  0.000  0.000  0.000  0.000  0.000  0.000  0.000  0.038
  2  0.001  0.037  0.000  0.000  0.000  0.000  0.000  0.000  0.000  0.038
tot  0.002  0.075  0.000  0.000  0.000  0.000  0.000  0.000  0.000  0.077
 
band  15 # energy   20.96876839 # occ.  0.00000000
 
ion      s     py     pz     px    dxy    dyz    dz2    dxz    dx2    tot
  1  0.036  0.001  0.000  0.000  0.000  0.000  0.000  0.000  0.000  0.038
  2  0.036  0.001  0.000  0.000  0.000  0.000  0.000  0.000  0.000  0.038
tot  0.073  0.003  0.000  0.000  0.000  0.000  0.000  0.000  0.000  0.075
 
band  16 # energy   28.29515303 # occ.  0.00000000
 
ion      s     py     pz     px    dxy    dyz    dz2    dxz    dx2    tot
  1  0.000  0.000  0.010  0.010  0.000  0.000  0.000  0.000  0.000  0.021
  2  0.000  0.000  0.010  0.010  0.000  0.000  0.000  0.000  0.000  0.021
tot  0.000  0.000  0.021  0.021  0.000  0.000  0.000  0.000  0.000  0.041
 
band  17 # energy   28.29515585 # occ.  0.00000000
 
ion      s     py     pz     px    dxy    dyz    dz2    dxz    dx2    tot
  1  0.000  0.000  0.010  0.010  0.000  0.000  0.000  0.000  0.000  0.021
  2  0.000  0.000  0.010  0.010  0.000  0.000  0.000  0.000  0.000  0.021
tot  0.000  0.000  0.021  0.021  0.000  0.000  0.000  0.000  0.000  0.041
 
band  18 # energy   28.48400105 # occ.  0.00000000
 
ion      s     py     pz     px    dxy    dyz    dz2    dxz    dx2    tot
  1  0.000  0.010  0.000  0.000  0.000  0.000  0.000  0.000  0.000  0.010
  2  0.000  0.010  0.000  0.000  0.000  0.000  0.000  0.000  0.000  0.010
tot  0.000  0.020  0.000  0.000  0.000  0.000  0.000  0.000  0.000  0.020
 
band  19 # energy   29.41138700 # occ.  0.00000000
 
ion      s     py     pz     px    dxy    dyz    dz2    dxz    dx2    tot
  1  0.000  0.000  0.000  0.000  0.000  0.000  0.000  0.000  0.000  0.000
  2  0.000  0.000  0.000  0.000  0.000  0.000  0.000  0.000  0.000  0.000
tot  0.000  0.000  0.000  0.000  0.000  0.000  0.000  0.000  0.000  0.000
 
band  20 # energy   29.44775962 # occ.  0.00000000
 
ion      s     py     pz     px    dxy    dyz    dz2    dxz    dx2    tot
  1  0.000  0.018  0.000  0.000  0.000  0.000  0.000  0.000  0.000  0.018
  2  0.000  0.018  0.000  0.000  0.000  0.000  0.000  0.000  0.000  0.018
tot  0.000  0.035  0.000  0.000  0.000  0.000  0.000  0.000  0.000  0.035
 

 k-point    3 :    0.05000000 0.00000000 0.05000000     weight = 0.00900901

band   1 # energy   -6.15582641 # occ.  2.00000000
 
ion      s     py     pz     px    dxy    dyz    dz2    dxz    dx2    tot
  1  0.212  0.000  0.000  0.000  0.000  0.000  0.000  0.000  0.000  0.212
  2  0.212  0.000  0.000  0.000  0.000  0.000  0.000  0.000  0.000  0.212
tot  0.423  0.001  0.000  0.000  0.000  0.000  0.000  0.000  0.000  0.424
 
band   2 # energy    5.32720486 # occ.  2.00000000
 
ion      s     py     pz     px    dxy    dyz    dz2    dxz    dx2    tot
  1  0.032  0.191  0.000  0.000  0.000  0.000  0.000  0.000  0.000  0.224
  2  0.032  0.191  0.000  0.000  0.000  0.000  0.000  0.000  0.000  0.224
tot  0.065  0.383  0.000  0.000  0.000  0.000  0.000  0.000  0.000  0.448
 
band   3 # energy    5.44520446 # occ.  2.00000000
 
ion      s     py     pz     px    dxy    dyz    dz2    dxz    dx2    tot
  1  0.000  0.000  0.105  0.105  0.000  0.000  0.000  0.000  0.000  0.210
  2  0.000  0.000  0.105  0.105  0.000  0.000  0.000  0.000  0.000  0.210
tot  0.000  0.000  0.210  0.210  0.000  0.000  0.000  0.000  0.000  0.420
 
band   4 # energy    5.44521457 # occ.  2.00000000
 
ion      s     py     pz     px    dxy    dyz    dz2    dxz    dx2    tot
  1  0.000  0.000  0.105  0.105  0.000  0.000  0.000  0.000  0.000  0.210
  2  0.000  0.000  0.105  0.105  0.000  0.000  0.000  0.000  0.000  0.210
tot  0.000  0.000  0.210  0.210  0.000  0.000  0.000  0.000  0.000  0.420
 
band   5 # energy    8.06940271 # occ.  0.00000000
 
ion      s     py     pz     px    dxy    dyz    dz2    dxz    dx2    tot
  1  0.004  0.144  0.000  0.000  0.000  0.000  0.000  0.000  0.000  0.148
  2  0.004  0.144  0.000  0.000  0.000  0.000  0.000  0.000  0.000  0.148
tot  0.009  0.287  0.000  0.000  0.000  0.000  0.000  0.000  0.000  0.296
 
band   6 # energy    8.39642505 # occ.  0.00000000
 
ion      s     py     pz     px    dxy    dyz    dz2    dxz    dx2    tot
  1  0.000  0.000  0.077  0.077  0.000  0.000  0.000  0.000  0.000  0.155
  2  0.000  0.000  0.077  0.077  0.000  0.000  0.000  0.000  0.000  0.155
tot  0.000  0.000  0.155  0.155  0.000  0.000  0.000  0.000  0.000  0.309
 
band   7 # energy    8.39643241 # occ.  0.00000000
 
ion      s     py     pz     px    dxy    dyz    dz2    dxz    dx2    tot
  1  0.000  0.000  0.077  0.077  0.000  0.000  0.000  0.000  0.000  0.155
  2  0.000  0.000  0.077  0.077  0.000  0.000  0.000  0.000  0.000  0.155
tot  0.000  0.000  0.155  0.155  0.000  0.000  0.000  0.000  0.000  0.309
 
band   8 # energy    9.02897419 # occ.  0.00000000
 
ion      s     py     pz     px    dxy    dyz    dz2    dxz    dx2    tot
  1  0.325  0.024  0.000  0.000  0.000  0.000  0.000  0.000  0.000  0.349
  2  0.325  0.024  0.000  0.000  0.000  0.000  0.000  0.000  0.000  0.349
tot  0.649  0.049  0.000  0.000  0.000  0.000  0.000  0.000  0.000  0.698
 
band   9 # energy   13.00257363 # occ.  0.00000000
 
ion      s     py     pz     px    dxy    dyz    dz2    dxz    dx2    tot
  1  0.001  0.001  0.000  0.000  0.000  0.000  0.000  0.000  0.000  0.002
  2  0.001  0.001  0.000  0.000  0.000  0.000  0.000  0.000  0.000  0.002
tot  0.001  0.002  0.000  0.000  0.000  0.000  0.000  0.000  0.000  0.003
 
band  10 # energy   13.37290903 # occ.  0.00000000
 
ion      s     py     pz     px    dxy    dyz    dz2    dxz    dx2    tot
  1  0.000  0.000  0.000  0.000  0.000  0.000  0.000  0.000  0.000  0.000
  2  0.000  0.000  0.000  0.000  0.000  0.000  0.000  0.000  0.000  0.000
tot  0.000  0.000  0.000  0.000  0.000  0.000  0.000  0.000  0.000  0.000
 
band  11 # energy   13.68256899 # occ.  0.00000000
 
ion      s     py     pz     px    dxy    dyz    dz2    dxz    dx2    tot
  1  0.095  0.008  0.000  0.000  0.000  0.000  0.000  0.000  0.000  0.103
  2  0.095  0.008  0.000  0.000  0.000  0.000  0.000  0.000  0.000  0.103
tot  0.190  0.016  0.000  0.000  0.000  0.000  0.000  0.000  0.000  0.206
 
band  12 # energy   16.87359784 # occ.  0.00000000
 
ion      s     py     pz     px    dxy    dyz    dz2    dxz    dx2    tot
  1  0.000  0.000  0.019  0.019  0.000  0.000  0.000  0.000  0.000  0.039
  2  0.000  0.000  0.019  0.019  0.000  0.000  0.000  0.000  0.000  0.039
tot  0.000  0.000  0.039  0.039  0.000  0.000  0.000  0.000  0.000  0.077
 
band  13 # energy   16.87360083 # occ.  0.00000000
 
ion      s     py     pz     px    dxy    dyz    dz2    dxz    dx2    tot
  1  0.000  0.000  0.019  0.019  0.000  0.000  0.000  0.000  0.000  0.039
  2  0.000  0.000  0.019  0.019  0.000  0.000  0.000  0.000  0.000  0.039
tot  0.000  0.000  0.039  0.039  0.000  0.000  0.000  0.000  0.000  0.077
 
band  14 # energy   17.02198710 # occ.  0.00000000
 
ion      s     py     pz     px    dxy    dyz    dz2    dxz    dx2    tot
  1  0.004  0.032  0.000  0.000  0.000  0.000  0.000  0.000  0.000  0.036
  2  0.004  0.032  0.000  0.000  0.000  0.000  0.000  0.000  0.000  0.036
tot  0.008  0.065  0.000  0.000  0.000  0.000  0.000  0.000  0.000  0.072
 
band  15 # energy   21.20102143 # occ.  0.00000000
 
ion      s     py     pz     px    dxy    dyz    dz2    dxz    dx2    tot
  1  0.033  0.005  0.000  0.000  0.000  0.000  0.000  0.000  0.000  0.038
  2  0.033  0.005  0.000  0.000  0.000  0.000  0.000  0.000  0.000  0.038
tot  0.067  0.009  0.000  0.000  0.000  0.000  0.000  0.000  0.000  0.076
 
band  16 # energy   27.85567574 # occ.  0.00000000
 
ion      s     py     pz     px    dxy    dyz    dz2    dxz    dx2    tot
  1  0.000  0.000  0.019  0.019  0.000  0.000  0.000  0.000  0.000  0.039
  2  0.000  0.000  0.019  0.019  0.000  0.000  0.000  0.000  0.000  0.039
tot  0.000  0.000  0.039  0.039  0.000  0.000  0.000  0.000  0.000  0.078
 
band  17 # energy   27.85567993 # occ.  0.00000000
 
ion      s     py     pz     px    dxy    dyz    dz2    dxz    dx2    tot
  1  0.000  0.000  0.019  0.019  0.000  0.000  0.000  0.000  0.000  0.039
  2  0.000  0.000  0.019  0.019  0.000  0.000  0.000  0.000  0.000  0.039
tot  0.000  0.000  0.039  0.039  0.000  0.000  0.000  0.000  0.000  0.078
 
band  18 # energy   28.52545183 # occ.  0.00000000
 
ion      s     py     pz     px    dxy    dyz    dz2    dxz    dx2    tot
  1  0.000  0.010  0.000  0.000  0.000  0.000  0.000  0.000  0.000  0.010
  2  0.000  0.010  0.000  0.000  0.000  0.000  0.000  0.000  0.000  0.010
tot  0.000  0.019  0.000  0.000  0.000  0.000  0.000  0.000  0.000  0.020
 
band  19 # energy   29.03371901 # occ.  0.00000000
 
ion      s     py     pz     px    dxy    dyz    dz2    dxz    dx2    tot
  1  0.000  0.000  0.000  0.000  0.000  0.000  0.000  0.000  0.000  0.000
  2  0.000  0.000  0.000  0.000  0.000  0.000  0.000  0.000  0.000  0.000
tot  0.000  0.000  0.000  0.000  0.000  0.000  0.000  0.000  0.000  0.000
 
band  20 # energy   29.18387156 # occ.  0.00000000
 
ion      s     py     pz     px    dxy    dyz    dz2    dxz    dx2    tot
  1  0.001  0.049  0.000  0.000  0.000  0.000  0.000  0.000  0.000  0.050
  2  0.001  0.049  0.000  0.000  0.000  0.000  0.000  0.000  0.000  0.050
tot  0.002  0.099  0.000  0.000  0.000  0.000  0.000  0.000  0.000  0.100
 

 k-point    4 :    0.07500000 0.00000000 0.07500000     weight = 0.00900901

band   1 # energy   -6.10212961 # occ.  2.00000000
 
ion      s     py     pz     px    dxy    dyz    dz2    dxz    dx2    tot
  1  0.211  0.001  0.000  0.000  0.000  0.000  0.000  0.000  0.000  0.213
  2  0.211  0.001  0.000  0.000  0.000  0.000  0.000  0.000  0.000  0.213
tot  0.423  0.002  0.000  0.000  0.000  0.000  0.000  0.000  0.000  0.425
 
band   2 # energy    5.02245816 # occ.  2.00000000
 
ion      s     py     pz     px    dxy    dyz    dz2    dxz    dx2    tot
  1  0.058  0.174  0.000  0.000  0.000  0.000  0.000  0.000  0.000  0.232
  2  0.058  0.174  0.000  0.000  0.000  0.000  0.000  0.000  0.000  0.232
tot  0.116  0.347  0.000  0.000  0.000  0.000  0.000  0.000  0.000  0.463
 
band   3 # energy    5.26533898 # occ.  2.00000000
 
ion      s     py     pz     px    dxy    dyz    dz2    dxz    dx2    tot
  1  0.000  0.000  0.103  0.103  0.000  0.000  0.000  0.000  0.000  0.207
  2  0.000  0.000  0.103  0.103  0.000  0.000  0.000  0.000  0.000  0.207
tot  0.000  0.000  0.207  0.207  0.000  0.000  0.000  0.000  0.000  0.413
 
band   4 # energy    5.26534884 # occ.  2.00000000
 
ion      s     py     pz     px    dxy    dyz    dz2    dxz    dx2    tot
  1  0.000  0.000  0.103  0.103  0.000  0.000  0.000  0.000  0.000  0.207
  2  0.000  0.000  0.103  0.103  0.000  0.000  0.000  0.000  0.000  0.207
tot  0.000  0.000  0.207  0.207  0.000  0.000  0.000  0.000  0.000  0.413
 
band   5 # energy    7.95075972 # occ.  0.00000000
 
ion      s     py     pz     px    dxy    dyz    dz2    dxz    dx2    tot
  1  0.009  0.136  0.000  0.000  0.000  0.000  0.000  0.000  0.000  0.145
  2  0.009  0.136  0.000  0.000  0.000  0.000  0.000  0.000  0.000  0.145
tot  0.018  0.272  0.000  0.000  0.000  0.000  0.000  0.000  0.000  0.290
 
band   6 # energy    8.64227234 # occ.  0.00000000
 
ion      s     py     pz     px    dxy    dyz    dz2    dxz    dx2    tot
  1  0.000  0.000  0.079  0.079  0.000  0.000  0.000  0.000  0.000  0.158
  2  0.000  0.000  0.079  0.079  0.000  0.000  0.000  0.000  0.000  0.158
tot  0.000  0.000  0.158  0.158  0.000  0.000  0.000  0.000  0.000  0.315
 
band   7 # energy    8.64227998 # occ.  0.00000000
 
ion      s     py     pz     px    dxy    dyz    dz2    dxz    dx2    tot
  1  0.000  0.000  0.079  0.079  0.000  0.000  0.000  0.000  0.000  0.158
  2  0.000  0.000  0.079  0.079  0.000  0.000  0.000  0.000  0.000  0.158
tot  0.000  0.000  0.158  0.158  0.000  0.000  0.000  0.000  0.000  0.315
 
band   8 # energy    9.30909375 # occ.  0.00000000
 
ion      s     py     pz     px    dxy    dyz    dz2    dxz    dx2    tot
  1  0.296  0.045  0.000  0.000  0.000  0.000  0.000  0.000  0.000  0.341
  2  0.296  0.045  0.000  0.000  0.000  0.000  0.000  0.000  0.000  0.341
tot  0.592  0.090  0.000  0.000  0.000  0.000  0.000  0.000  0.000  0.682
 
band   9 # energy   12.68315509 # occ.  0.00000000
 
ion      s     py     pz     px    dxy    dyz    dz2    dxz    dx2    tot
  1  0.003  0.001  0.000  0.000  0.000  0.000  0.000  0.000  0.000  0.004
  2  0.003  0.001  0.000  0.000  0.000  0.000  0.000  0.000  0.000  0.004
tot  0.007  0.001  0.000  0.000  0.000  0.000  0.000  0.000  0.000  0.008
 
band  10 # energy   13.43257344 # occ.  0.00000000
 
ion      s     py     pz     px    dxy    dyz    dz2    dxz    dx2    tot
  1  0.000  0.000  0.000  0.000  0.000  0.000  0.000  0.000  0.000  0.000
  2  0.000  0.000  0.000  0.000  0.000  0.000  0.000  0.000  0.000  0.000
tot  0.000  0.000  0.000  0.000  0.000  0.000  0.000  0.000  0.000  0.000
 
band  11 # energy   13.90757363 # occ.  0.00000000
 
ion      s     py     pz     px    dxy    dyz    dz2    dxz    dx2    tot
  1  0.089  0.016  0.000  0.000  0.000  0.000  0.000  0.000  0.000  0.106
  2  0.089  0.016  0.000  0.000  0.000  0.000  0.000  0.000  0.000  0.106
tot  0.179  0.033  0.000  0.000  0.000  0.000  0.000  0.000  0.000  0.212
 
band  12 # energy   16.96731592 # occ.  0.00000000
 
ion      s     py     pz     px    dxy    dyz    dz2    dxz    dx2    tot
  1  0.000  0.000  0.019  0.019  0.000  0.000  0.000  0.000  0.000  0.038
  2  0.000  0.000  0.019  0.019  0.000  0.000  0.000  0.000  0.000  0.038
tot  0.000  0.000  0.038  0.038  0.000  0.000  0.000  0.000  0.000  0.076
 
band  13 # energy   16.96731888 # occ.  0.00000000
 
ion      s     py     pz     px    dxy    dyz    dz2    dxz    dx2    tot
  1  0.000  0.000  0.019  0.019  0.000  0.000  0.000  0.000  0.000  0.038
  2  0.000  0.000  0.019  0.019  0.000  0.000  0.000  0.000  0.000  0.038
tot  0.000  0.000  0.038  0.038  0.000  0.000  0.000  0.000  0.000  0.076
 
band  14 # energy   17.24192733 # occ.  0.00000000
 
ion      s     py     pz     px    dxy    dyz    dz2    dxz    dx2    tot
  1  0.007  0.026  0.000  0.000  0.000  0.000  0.000  0.000  0.000  0.034
  2  0.007  0.026  0.000  0.000  0.000  0.000  0.000  0.000  0.000  0.034
tot  0.015  0.053  0.000  0.000  0.000  0.000  0.000  0.000  0.000  0.067
 
band  15 # energy   21.57652201 # occ.  0.00000000
 
ion      s     py     pz     px    dxy    dyz    dz2    dxz    dx2    tot
  1  0.029  0.010  0.000  0.000  0.000  0.000  0.000  0.000  0.000  0.039
  2  0.029  0.010  0.000  0.000  0.000  0.000  0.000  0.000  0.000  0.039
tot  0.058  0.019  0.000  0.000  0.000  0.000  0.000  0.000  0.000  0.078
 
band  16 # energy   27.28032958 # occ.  0.00000000
 
ion      s     py     pz     px    dxy    dyz    dz2    dxz    dx2    tot
  1  0.000  0.000  0.027  0.027  0.000  0.000  0.000  0.000  0.000  0.054
  2  0.000  0.000  0.027  0.027  0.000  0.000  0.000  0.000  0.000  0.054
tot  0.000  0.000  0.054  0.054  0.000  0.000  0.000  0.000  0.000  0.107
 
band  17 # energy   27.28033488 # occ.  0.00000000
 
ion      s     py     pz     px    dxy    dyz    dz2    dxz    dx2    tot
  1  0.000  0.000  0.027  0.027  0.000  0.000  0.000  0.000  0.000  0.054
  2  0.000  0.000  0.027  0.027  0.000  0.000  0.000  0.000  0.000  0.054
tot  0.000  0.000  0.054  0.054  0.000  0.000  0.000  0.000  0.000  0.107
 
band  18 # energy   28.50087023 # occ.  0.00000000
 
ion      s     py     pz     px    dxy    dyz    dz2    dxz    dx2    tot
  1  0.000  0.000  0.000  0.000  0.000  0.000  0.000  0.000  0.000  0.000
  2  0.000  0.000  0.000  0.000  0.000  0.000  0.000  0.000  0.000  0.000
tot  0.000  0.000  0.000  0.000  0.000  0.000  0.000  0.000  0.000  0.000
 
band  19 # energy   28.59559797 # occ.  0.00000000
 
ion      s     py     pz     px    dxy    dyz    dz2    dxz    dx2    tot
  1  0.000  0.009  0.000  0.000  0.000  0.000  0.000  0.000  0.000  0.010
  2  0.000  0.009  0.000  0.000  0.000  0.000  0.000  0.000  0.000  0.010
tot  0.001  0.018  0.000  0.000  0.000  0.000  0.000  0.000  0.000  0.019
 
band  20 # energy   28.82902830 # occ.  0.00000000
 
ion      s     py     pz     px    dxy    dyz    dz2    dxz    dx2    tot
  1  0.003  0.076  0.000  0.000  0.000  0.000  0.000  0.000  0.000  0.079
  2  0.003  0.076  0.000  0.000  0.000  0.000  0.000  0.000  0.000  0.079
tot  0.005  0.152  0.000  0.000  0.000  0.000  0.000  0.000  0.000  0.158
 

 k-point    5 :    0.10000000 0.00000000 0.10000000     weight = 0.00900901

band   1 # energy   -6.02706818 # occ.  2.00000000
 
ion      s     py     pz     px    dxy    dyz    dz2    dxz    dx2    tot
  1  0.211  0.002  0.000  0.000  0.000  0.000  0.000  0.000  0.000  0.213
  2  0.211  0.002  0.000  0.000  0.000  0.000  0.000  0.000  0.000  0.213
tot  0.422  0.004  0.000  0.000  0.000  0.000  0.000  0.000  0.000  0.426
 
band   2 # energy    4.66018590 # occ.  2.00000000
 
ion      s     py     pz     px    dxy    dyz    dz2    dxz    dx2    tot
  1  0.081  0.157  0.000  0.000  0.000  0.000  0.000  0.000  0.000  0.238
  2  0.081  0.157  0.000  0.000  0.000  0.000  0.000  0.000  0.000  0.238
tot  0.162  0.315  0.000  0.000  0.000  0.000  0.000  0.000  0.000  0.476
 
band   3 # energy    5.05439467 # occ.  2.00000000
 
ion      s     py     pz     px    dxy    dyz    dz2    dxz    dx2    tot
  1  0.000  0.000  0.102  0.102  0.000  0.000  0.000  0.000  0.000  0.204
  2  0.000  0.000  0.102  0.102  0.000  0.000  0.000  0.000  0.000  0.204
tot  0.000  0.000  0.204  0.204  0.000  0.000  0.000  0.000  0.000  0.408
 
band   4 # energy    5.05440429 # occ.  2.00000000
 
ion      s     py     pz     px    dxy    dyz    dz2    dxz    dx2    tot
  1  0.000  0.000  0.102  0.102  0.000  0.000  0.000  0.000  0.000  0.204
  2  0.000  0.000  0.102  0.102  0.000  0.000  0.000  0.000  0.000  0.204
tot  0.000  0.000  0.204  0.204  0.000  0.000  0.000  0.000  0.000  0.408
 