<?xml version="1.0" encoding="ISO-8859-1"?>
<modeling>
 <generator>
  <i name="program" type="string">vasp </i>
  <i name="version" type="string">5.3.3  </i>
  <i name="subversion" type="string">18Dez12 (build Apr 06 2015 16:58:45) complex                          parallel </i>
  <i name="platform" type="string">LinuxIFC </i>
  <i name="date" type="string">2015 04 20 </i>
  <i name="time" type="string">10:13:10 </i>
 </generator>
 <incar>
  <i type="string" name="SYSTEM"> bulk	</i>
  <i type="int" name="ISTART">     1</i>
  <i type="string" name="PREC">high</i>
  <i type="string" name="ALGO"> normal</i>
  <i type="int" name="ISPIN">     1</i>
  <i type="int" name="ICHARG">    11</i>
  <i type="int" name="NELM">   100</i>
  <i type="int" name="NELMIN">     8</i>
  <i name="EDIFF">      0.00000100</i>
  <i name="EDIFFG">      0.00000100</i>
  <i name="ENCUT">    500.00000000</i>
  <i type="int" name="NBANDS">    20</i>
  <i name="POTIM">      0.05000000</i>
  <i type="int" name="ISMEAR">     0</i>
  <i name="SIGMA">      0.10000000</i>
  <i type="logical" name="LWAVE"> F  </i>
  <i type="logical" name="LCHARG"> F  </i>
  <i type="logical" name="LORBIT"> F  </i>
  <i type="int" name="NELM">   100</i>
  <i type="string" name="GGA"> PE</i>
 </incar>
 <kpoints>
  <varray name="kpointlist" >
   <v>       0.00000000       0.00000000       0.00000000 </v>
   <v>       0.02500000       0.00000000       0.02500000 </v>
   <v>       0.05000000       0.00000000       0.05000000 </v>
   <v>       0.07500000       0.00000000       0.07500000 </v>
   <v>       0.10000000       0.00000000       0.10000000 </v>
   <v>       0.12500000       0.00000000       0.12500000 </v>
   <v>       0.15000000       0.00000000       0.15000000 </v>
   <v>       0.17500000       0.00000000       0.17500000 </v>
   <v>       0.20000000       0.00000000       0.20000000 </v>
   <v>       0.22500000       0.00000000       0.22500000 </v>
   <v>       0.25000000       0.00000000       0.25000000 </v>
   <v>       0.27500000       0.00000000       0.27500000 </v>
   <v>       0.30000000       0.00000000       0.30000000 </v>
   <v>       0.32500000       0.00000000       0.32500000 </v>
   <v>       0.35000000       0.00000000       0.35000000 </v>
   <v>       0.37500000       0.00000000       0.37500000 </v>
   <v>       0.40000000       0.00000000       0.40000000 </v>
   <v>       0.42500000       0.00000000       0.42500000 </v>
   <v>       0.45000000       0.00000000       0.45000000 </v>
   <v>       0.47500000       0.00000000       0.47500000 </v>
   <v>       0.50000000       0.00000000       0.50000000 </v>
   <v>       0.50000000       0.01666700       0.51666700 </v>
   <v>       0.50000000       0.03333300       0.53333300 </v>
   <v>       0.50000000       0.05000000       0.55000000 </v>
   <v>       0.50000000       0.06666700       0.56666700 </v>
   <v>       0.50000000       0.08333300       0.58333300 </v>
   <v>       0.50000000       0.10000000       0.60000000 </v>
   <v>       0.50000000       0.11666700       0.61666700 </v>
   <v>       0.50000000       0.13333300       0.63333300 </v>
   <v>       0.50000000       0.15000000       0.65000000 </v>
   <v>       0.50000000       0.16666700       0.66666700 </v>
   <v>       0.50000000       0.18333300       0.68333300 </v>
   <v>       0.50000000       0.20000000       0.70000000 </v>
   <v>       0.50000000       0.21666700       0.71666700 </v>
   <v>       0.50000000       0.23333300       0.73333300 </v>
   <v>       0.50000000       0.25000000       0.75000000 </v>
   <v>       0.50000000       0.26250000       0.73750000 </v>
   <v>       0.50000000       0.27500000       0.72500000 </v>
   <v>       0.50000000       0.28750000       0.71250000 </v>
   <v>       0.50000000       0.30000000       0.70000000 </v>
   <v>       0.50000000       0.31250000       0.68750000 </v>
   <v>       0.50000000       0.32500000       0.67500000 </v>
   <v>       0.50000000       0.33750000       0.66250000 </v>
   <v>       0.50000000       0.35000000       0.65000000 </v>
   <v>       0.50000000       0.36250000       0.63750000 </v>
   <v>       0.50000000       0.37500000       0.62500000 </v>
   <v>       0.50000000       0.38750000       0.61250000 </v>
   <v>       0.50000000       0.40000000       0.60000000 </v>
   <v>       0.50000000       0.41250000       0.58750000 </v>
   <v>       0.50000000       0.42500000       0.57500000 </v>
   <v>       0.50000000       0.43750000       0.56250000 </v>
   <v>       0.50000000       0.45000000       0.55000000 </v>
   <v>       0.50000000       0.46250000       0.53750000 </v>
   <v>       0.50000000       0.47500000       0.52500000 </v>
   <v>       0.50000000       0.48750000       0.51250000 </v>
   <v>       0.50000000       0.50000000       0.50000000 </v>
   <v>       0.47500000       0.47500000       0.47500000 </v>
   <v>       0.45000000       0.45000000       0.45000000 </v>
   <v>       0.42500000       0.42500000       0.42500000 </v>
   <v>       0.40000000       0.40000000       0.40000000 </v>
   <v>       0.37500000       0.37500000       0.37500000 </v>
   <v>       0.35000000       0.35000000       0.35000000 </v>
   <v>       0.32500000       0.32500000       0.32500000 </v>
   <v>       0.30000000       0.30000000       0.30000000 </v>
   <v>       0.27500000       0.27500000       0.27500000 </v>
   <v>       0.25000000       0.25000000       0.25000000 </v>
   <v>       0.22500000       0.22500000       0.22500000 </v>
   <v>       0.20000000       0.20000000       0.20000000 </v>
   <v>       0.17500000       0.17500000       0.17500000 </v>
   <v>       0.15000000       0.15000000       0.15000000 </v>
   <v>       0.12500000       0.12500000       0.12500000 </v>
   <v>       0.10000000       0.10000000       0.10000000 </v>
   <v>       0.07500000       0.07500000       0.07500000 </v>
   <v>       0.05000000       0.05000000       0.05000000 </v>
   <v>       0.02500000       0.02500000       0.02500000 </v>
   <v>       0.00000000       0.00000000       0.00000000 </v>
   <v>       0.01875000       0.01875000       0.03750000 </v>
   <v>       0.03750000       0.03750000       0.07500000 </v>
   <v>       0.05625000       0.05625000       0.11250000 </v>
   <v>       0.07500000       0.07500000       0.15000000 </v>
   <v>       0.09375000       0.09375000       0.18750000 </v>
   <v>       0.11250000       0.11250000       0.22500000 </v>
   <v>       0.13125000       0.13125000       0.26250000 </v>
   <v>       0.15000000       0.15000000       0.30000000 </v>
   <v>       0.16875000       0.16875000       0.33750000 </v>
   <v>       0.18750000       0.18750000       0.37500000 </v>
   <v>       0.20625000       0.20625000       0.41250000 </v>
   <v>       0.22500000       0.22500000       0.45000000 </v>
   <v>       0.24375000       0.24375000       0.48750000 </v>
   <v>       0.26250000       0.26250000       0.52500000 </v>
   <v>       0.28125000       0.28125000       0.56250000 </v>
   <v>       0.30000000       0.30000000       0.60000000 </v>
   <v>       0.31875000       0.31875000       0.63750000 </v>
   <v>       0.33750000       0.33750000       0.67500000 </v>
   <v>       0.35625000       0.35625000       0.71250000 </v>
   <v>       0.37500000       0.37500000       0.75000000 </v>
   <v>       0.38333300       0.35000000       0.73333300 </v>
   <v>       0.39166700       0.32500000       0.71666700 </v>
   <v>       0.40000000       0.30000000       0.70000000 </v>
   <v>       0.40833300       0.27500000       0.68333300 </v>
   <v>       0.41666700       0.25000000       0.66666700 </v>
   <v>       0.42500000       0.22500000       0.65000000 </v>
   <v>       0.43333300       0.20000000       0.63333300 </v>
   <v>       0.44166700       0.17500000       0.61666700 </v>
   <v>       0.45000000       0.15000000       0.60000000 </v>
   <v>       0.45833300       0.12500000       0.58333300 </v>
   <v>       0.46666700       0.10000000       0.56666700 </v>
   <v>       0.47500000       0.07500000       0.55000000 </v>
   <v>       0.48333300       0.05000000       0.53333300 </v>
   <v>       0.49166700       0.02500000       0.51666700 </v>
   <v>       0.50000000       0.00000000       0.50000000 </v>
  </varray>
  <varray name="weights" >
   <v>       0.00900901 </v>
   <v>       0.00900901 </v>
   <v>       0.00900901 </v>
   <v>       0.00900901 </v>
   <v>       0.00900901 </v>
   <v>       0.00900901 </v>
   <v>       0.00900901 </v>
   <v>       0.00900901 </v>
   <v>       0.00900901 </v>
   <v>       0.00900901 </v>
   <v>       0.00900901 </v>
   <v>       0.00900901 </v>
   <v>       0.00900901 </v>
   <v>       0.00900901 </v>
   <v>       0.00900901 </v>
   <v>       0.00900901 </v>
   <v>       0.00900901 </v>
   <v>       0.00900901 </v>
   <v>       0.00900901 </v>
   <v>       0.00900901 </v>
   <v>       0.00900901 </v>
   <v>       0.00900901 </v>
   <v>       0.00900901 </v>
   <v>       0.00900901 </v>
   <v>       0.00900901 </v>
   <v>       0.00900901 </v>
   <v>       0.00900901 </v>
   <v>       0.00900901 </v>
   <v>       0.00900901 </v>
   <v>       0.00900901 </v>
   <v>       0.00900901 </v>
   <v>       0.00900901 </v>
   <v>       0.00900901 </v>
   <v>       0.00900901 </v>
   <v>       0.00900901 </v>
   <v>       0.00900901 </v>
   <v>       0.00900901 </v>
   <v>       0.00900901 </v>
   <v>       0.00900901 </v>
   <v>       0.00900901 </v>
   <v>       0.00900901 </v>
   <v>       0.00900901 </v>
   <v>       0.00900901 </v>
   <v>       0.00900901 </v>
   <v>       0.00900901 </v>
   <v>       0.00900901 </v>
   <v>       0.00900901 </v>
   <v>       0.00900901 </v>
   <v>       0.00900901 </v>
   <v>       0.00900901 </v>
   <v>       0.00900901 </v>
   <v>       0.00900901 </v>
   <v>       0.00900901 </v>
   <v>       0.00900901 </v>
   <v>       0.00900901 </v>
   <v>       0.00900901 </v>
   <v>       0.00900901 </v>
   <v>       0.00900901 </v>
   <v>       0.00900901 </v>
   <v>       0.00900901 </v>
   <v>       0.00900901 </v>
   <v>       0.00900901 </v>
   <v>       0.00900901 </v>
   <v>       0.00900901 </v>
   <v>       0.00900901 </v>
   <v>       0.00900901 </v>
   <v>       0.00900901 </v>
   <v>       0.00900901 </v>
   <v>       0.00900901 </v>
   <v>       0.00900901 </v>
   <v>       0.00900901 </v>
   <v>       0.00900901 </v>
   <v>       0.00900901 </v>
   <v>       0.00900901 </v>
   <v>       0.00900901 </v>
   <v>       0.00900901 </v>
   <v>       0.00900901 </v>
   <v>       0.00900901 </v>
   <v>       0.00900901 </v>
   <v>       0.00900901 </v>
   <v>       0.00900901 </v>
   <v>       0.00900901 </v>
   <v>       0.00900901 </v>
   <v>       0.00900901 </v>
   <v>       0.00900901 </v>
   <v>       0.00900901 </v>
   <v>       0.00900901 </v>
   <v>       0.00900901 </v>
   <v>       0.00900901 </v>
   <v>       0.00900901 </v>
   <v>       0.00900901 </v>
   <v>       0.00900901 </v>
   <v>       0.00900901 </v>
   <v>       0.00900901 </v>
   <v>       0.00900901 </v>
   <v>       0.00900901 </v>
   <v>       0.00900901 </v>
   <v>       0.00900901 </v>
   <v>       0.00900901 </v>
   <v>       0.00900901 </v>
   <v>       0.00900901 </v>
   <v>       0.00900901 </v>
   <v>       0.00900901 </v>
   <v>       0.00900901 </v>
   <v>       0.00900901 </v>
   <v>       0.00900901 </v>
   <v>       0.00900901 </v>
   <v>       0.00900901 </v>
   <v>       0.00900901 </v>
   <v>       0.00900901 </v>
   <v>       0.00900901 </v>
  </varray>
 </kpoints>
 <parameters>
  <separator name="general" >
   <i type="string" name="SYSTEM">bulk	</i>
   <i type="logical" name="LCOMPAT"> F  </i>
  </separator>
  <separator name="electronic" >
   <i type="string" name="PREC">high</i>
   <i name="ENMAX">    500.00000000</i>
   <i name="ENAUG">    322.06900000</i>
   <i name="EDIFF">      0.00000100</i>
   <i type="int" name="IALGO">    38</i>
   <i type="int" name="IWAVPR">    10</i>
   <i type="int" name="NBANDS">    20</i>
   <i name="NELECT">      8.00000000</i>
   <i type="int" name="TURBO">     0</i>
   <i type="int" name="IRESTART">     0</i>
   <i type="int" name="NREBOOT">     0</i>
   <i type="int" name="NMIN">     0</i>
   <i name="EREF">      0.00000000</i>
   <separator name="electronic smearing" >
    <i type="int" name="ISMEAR">     0</i>
    <i name="SIGMA">      0.10000000</i>
    <i name="KSPACING">      0.50000000</i>
    <i type="logical" name="KGAMMA"> T  </i>
   </separator>
   <separator name="electronic projectors" >
    <i type="logical" name="LREAL"> F  </i>
    <v name="ROPT">      0.00000000</v>
    <i type="int" name="LMAXPAW">  -100</i>
    <i type="int" name="LMAXMIX">     2</i>
    <i type="logical" name="NLSPLINE"> F  </i>
   </separator>
   <separator name="electronic startup" >
    <i type="int" name="ISTART">     1</i>
    <i type="int" name="ICHARG">    11</i>
    <i type="int" name="INIWAV">     1</i>
   </separator>
   <separator name="electronic spin" >
    <i type="int" name="ISPIN">     1</i>
    <i type="logical" name="LNONCOLLINEAR"> F  </i>
    <v name="MAGMOM">      1.00000000      1.00000000</v>
    <i name="NUPDOWN">     -1.00000000</i>
    <i type="logical" name="LSORBIT"> F  </i>
    <v name="SAXIS">      0.00000000      0.00000000      1.00000000</v>
    <i type="logical" name="LSPIRAL"> F  </i>
    <v name="QSPIRAL">      0.00000000      0.00000000      0.00000000</v>
    <i type="logical" name="LZEROZ"> F  </i>
   </separator>
   <separator name="electronic exchange-correlation" >
    <i type="logical" name="LASPH"> F  </i>
    <i type="logical" name="LMETAGGA"> F  </i>
   </separator>
   <separator name="electronic convergence" >
    <i type="int" name="NELM">   100</i>
    <i type="int" name="NELMDL">     0</i>
    <i type="int" name="NELMIN">     8</i>
    <i name="ENINI">    500.00000000</i>
    <separator name="electronic convergence detail" >
     <i type="logical" name="LDIAG"> T  </i>
     <i type="logical" name="LSUBROT"> T  </i>
     <i name="WEIMIN">      0.00000000</i>
     <i name="EBREAK">      0.00000000</i>
     <i name="DEPER">      0.30000000</i>
     <i type="int" name="NRMM">     4</i>
     <i name="TIME">      0.40000000</i>
    </separator>
   </separator>
   <separator name="electronic mixer" >
    <i name="AMIX">      0.40000000</i>
    <i name="BMIX">      1.00000000</i>
    <i name="AMIN">      0.10000000</i>
    <i name="AMIX_MAG">      1.60000000</i>
    <i name="BMIX_MAG">      1.00000000</i>
    <separator name="electronic mixer details" >
     <i type="int" name="IMIX">     4</i>
     <i type="int" name="MAXMIX">   -45</i>
     <i name="WC">    100.00000000</i>
     <i type="int" name="INIMIX">     1</i>
     <i type="int" name="MIXPRE">     1</i>
     <i type="int" name="MREMOVE">     5</i>
    </separator>
   </separator>
   <separator name="electronic dipolcorrection" >
    <i type="logical" name="LDIPOL"> F  </i>
    <i type="logical" name="LMONO"> F  </i>
    <i type="int" name="IDIPOL">     0</i>
    <i name="EPSILON">      1.00000000</i>
    <v name="DIPOL">   -100.00000000   -100.00000000   -100.00000000</v>
    <i name="EFIELD">      0.00000000</i>
   </separator>
  </separator>
  <separator name="grids" >
   <i type="int" name="NGX">    28</i>
   <i type="int" name="NGY">    28</i>
   <i type="int" name="NGZ">    28</i>
   <i type="int" name="NGXF">    30</i>
   <i type="int" name="NGYF">    30</i>
   <i type="int" name="NGZF">    30</i>
   <i type="logical" name="ADDGRID"> F  </i>
  </separator>
  <separator name="ionic" >
   <i type="int" name="NSW">     0</i>
   <i type="int" name="IBRION">    -1</i>
   <i type="int" name="ISIF">     2</i>
   <i name="PSTRESS">      0.00000000</i>
   <i name="EDIFFG">      0.00000100</i>
   <i type="int" name="NFREE">     0</i>
   <i name="POTIM">      0.05000000</i>
   <i name="SMASS">     -3.00000000</i>
   <i name="SCALEE">      1.00000000</i>
  </separator>
  <separator name="ionic md" >
   <i name="TEBEG">      0.00010000</i>
   <i name="TEEND">      0.00010000</i>
   <i type="int" name="NBLOCK">     1</i>
   <i type="int" name="KBLOCK">     1</i>
   <i type="int" name="NPACO">   256</i>
   <i name="APACO">     16.00000000</i>
  </separator>
  <separator name="symmetry" >
   <i type="int" name="ISYM">     2</i>
   <i name="SYMPREC">      0.00001000</i>
  </separator>
  <separator name="dos" >
   <i type="logical" name="LORBIT"> F  </i>
   <v name="RWIGS">     -1.00000000</v>
   <i type="int" name="NEDOS">   301</i>
   <i name="EMIN">     10.00000000</i>
   <i name="EMAX">    -10.00000000</i>
   <i name="EFERMI">      0.00000000</i>
  </separator>
  <separator name="writing" >
   <i type="int" name="NWRITE">     2</i>
   <i type="logical" name="LWAVE"> F  </i>
   <i type="logical" name="LCHARG"> F  </i>
   <i type="logical" name="LPARD"> F  </i>
   <i type="logical" name="LVTOT"> F  </i>
   <i type="logical" name="LVHAR"> F  </i>
   <i type="logical" name="LELF"> F  </i>
   <i type="logical" name="LOPTICS"> F  </i>
   <v name="STM">      0.00000000      0.00000000      0.00000000      0.00000000      0.00000000      0.00000000      0.00000000</v>
  </separator>
  <separator name="performance" >
   <i type="int" name="NPAR">     1</i>
   <i type="int" name="NSIM">     4</i>
   <i type="int" name="NBLK">    -1</i>
   <i type="logical" name="LPLANE"> T  </i>
   <i type="logical" name="LSCALAPACK"> T  </i>
   <i type="logical" name="LSCAAWARE"> F  </i>
   <i type="logical" name="LSCALU"> F  </i>
   <i type="logical" name="LASYNC"> F  </i>
   <i type="logical" name="LORBITALREAL"> F  </i>
  </separator>
  <separator name="miscellaneous" >
   <i type="int" name="IDIOT">     3</i>
   <i type="logical" name="LMUSIC"> F  </i>
   <v name="POMASS">     28.08500000</v>
   <v name="DARWINR">      0.00000000</v>
   <v name="DARWINV">      1.00000000</v>
   <i type="logical" name="LCORR"> T  </i>
  </separator>
  <i type="logical" name="GGA_COMPAT"> T  </i>
  <i type="logical" name="LBERRY"> F  </i>
  <i type="int" name="ICORELEVEL">     0</i>
  <i type="logical" name="LDAU"> F  </i>
  <i type="int" name="I_CONSTRAINED_M">     0</i>
  <separator name="electronic exchange-correlation" >
   <i type="string" name="GGA">PE</i>
   <i type="int" name="VOSKOWN">     0</i>
   <i type="logical" name="LHFCALC"> F  </i>
   <i type="string" name="PRECFOCK"></i>
   <i type="logical" name="LSYMGRAD"> F  </i>
   <i type="logical" name="LHFONE"> F  </i>
   <i type="logical" name="LRHFCALC"> F  </i>
   <i type="logical" name="LTHOMAS"> F  </i>
   <i type="logical" name="LMODELHF"> F  </i>
   <i name="ENCUT4O">     -1.00000000</i>
   <i type="int" name="EXXOEP">     0</i>
   <i type="int" name="FOURORBIT">     0</i>
   <i name="AEXX">      0.00000000</i>
   <i name="HFALPHA">      0.00000000</i>
   <i name="MCALPHA">      0.00000000</i>
   <i name="ALDAX">      1.00000000</i>
   <i name="AGGAX">      1.00000000</i>
   <i name="ALDAC">      1.00000000</i>
   <i name="AGGAC">      1.00000000</i>
   <i type="int" name="NKREDX">     1</i>
   <i type="int" name="NKREDY">     1</i>
   <i type="int" name="NKREDZ">     1</i>
   <i type="logical" name="SHIFTRED"> F  </i>
   <i type="logical" name="ODDONLY"> F  </i>
   <i type="logical" name="EVENONLY"> F  </i>
   <i type="int" name="LMAXFOCK">     0</i>
   <i type="int" name="NMAXFOCKAE">     0</i>
   <i type="logical" name="LFOCKAEDFT"> F  </i>
   <i name="HFSCREEN">      0.00000000</i>
   <i name="HFSCREENC">      0.00000000</i>
   <i type="int" name="NBANDSGWLOW">     0</i>
  </separator>
  <separator name="vdW DFT" >
   <i type="logical" name="LUSE_VDW"> F  </i>
   <i name="Zab_VDW">     -0.84910000</i>
   <i name="PARAM1">      0.12340000</i>
   <i name="PARAM2">      1.00000000</i>
   <i name="PARAM3">      0.00000000</i>
  </separator>
  <separator name="model GW" >
   <i type="int" name="MODEL_GW">     0</i>
   <i name="MODEL_EPS0">     12.26643402</i>
   <i name="MODEL_ALPHA">      1.00000000</i>
  </separator>
  <separator name="linear response parameters" >
   <i type="logical" name="LEPSILON"> F  </i>
   <i type="logical" name="LRPA"> F  </i>
   <i type="logical" name="LNABLA"> F  </i>
   <i type="logical" name="LVEL"> F  </i>
   <i type="int" name="KINTER">     0</i>
   <i name="CSHIFT">      0.10000000</i>
   <i name="OMEGAMAX">     -1.00000000</i>
   <i name="DEG_THRESHOLD">      0.00200000</i>
  </separator>
  <separator name="orbital magnetization" >
   <i type="logical" name="NUCIND"> F  </i>
   <v name="MAGPOS">      0.00000000      0.00000000      0.00000000</v>
   <i type="logical" name="LNICSALL"> T  </i>
   <i type="logical" name="ORBITALMAG"> F  </i>
   <i type="logical" name="LMAGBLOCH"> F  </i>
   <i type="logical" name="LCHIMAG"> F  </i>
   <i type="logical" name="LGAUGE"> T  </i>
   <i type="int" name="MAGATOM">     0</i>
   <v name="MAGDIPOL">      0.00000000      0.00000000      0.00000000</v>
   <v name="AVECCONST">      0.00000000      0.00000000      0.00000000</v>
  </separator>
  <separator name="response functions" >
   <i type="logical" name="LADDER"> F  </i>
   <i type="logical" name="LFXC"> F  </i>
   <i type="logical" name="LHARTREE"> T  </i>
   <i type="int" name="IBSE">     0</i>
   <i type="logical" name="LTCTE"> F  </i>
   <i type="logical" name="LTETE"> F  </i>
   <i type="logical" name="LTRIPLET"> F  </i>
   <i type="logical" name="LFXCEPS"> F  </i>
   <i type="logical" name="L2ORDER"> F  </i>
   <i type="logical" name="LUSEW"> F  </i>
   <i name="ENCUTGW">     -2.00000000</i>
   <i name="ENCUTGWSOFT">     -2.00000000</i>
   <i name="ENCUTLF">     -1.00000000</i>
   <i type="int" name="LMAXMP2">    -1</i>
   <i name="SCISSOR">      0.00000000</i>
   <i type="int" name="NOMEGA">     0</i>
   <i type="int" name="NOMEGAR">     0</i>
   <i type="int" name="NBANDSGW">    -1</i>
   <i type="int" name="NBANDSO">    -1</i>
   <i type="int" name="NBANDSV">    -1</i>
   <i type="int" name="NELM">   100</i>
   <i type="int" name="DIM">     3</i>
   <i type="int" name="ANTIRES">     0</i>
   <i name="OMEGAMAX">    -30.00000000</i>
   <i name="OMEGATL">   -200.00000000</i>
   <i type="int" name="OMEGAGRID">     0</i>
   <i name="CSHIFT">     -0.10000000</i>
   <i type="logical" name="SELFENERGY"> F  </i>
   <i type="logical" name="LSPECTRAL"> F  </i>
   <i type="logical" name="ODDONLYGW"> F  </i>
   <i type="logical" name="EVENONLYGW"> F  </i>
   <i type="int" name="NKREDLFX">     1</i>
   <i type="int" name="NKREDLFY">     1</i>
   <i type="int" name="NKREDLFZ">     1</i>
   <i type="int" name="MAXMEM">  1800</i>
   <i type="int" name="TELESCOPE">     0</i>
  </separator>
 </parameters>
 <atominfo>
  <atoms>       2 </atoms>
  <types>       1 </types>
  <array name="atoms" >
   <dimension dim="1">ion</dimension>
   <field type="string">element</field>
   <field type="int">atomtype</field>
   <set>
    <rc><c>Si</c><c>   1</c></rc>
    <rc><c>Si</c><c>   1</c></rc>
   </set>
  </array>
  <array name="atomtypes" >
   <dimension dim="1">type</dimension>
   <field type="int">atomspertype</field>
   <field type="string">element</field>
   <field>mass</field>
   <field>valence</field>
   <field type="string">pseudopotential</field>
   <set>
    <rc><c>   2</c><c>Si</c><c>     28.08500000</c><c>      4.00000000</c><c>  PAW_PBE Si 05Jan2001                  </c></rc>
   </set>
  </array>
 </atominfo>
 <structure name="initialpos" >
  <crystal>
   <varray name="basis" >
    <v>       0.00000000       2.73436000       2.73436000 </v>
    <v>       2.73436000       0.00000000       2.73436000 </v>
    <v>       2.73436000       2.73436000       0.00000000 </v>
   </varray>
   <i name="volume">     40.88811341 </i>
   <varray name="rec_basis" >
    <v>      -0.18285815       0.18285815       0.18285815 </v>
    <v>       0.18285815      -0.18285815       0.18285815 </v>
    <v>       0.18285815       0.18285815      -0.18285815 </v>
   </varray>
  </crystal>
  <varray name="positions" >
   <v>       0.00000000       0.00000000       0.00000000 </v>
   <v>       0.25000000       0.25000000       0.25000000 </v>
  </varray>
 </structure>
 <calculation>
  <scstep>
   <time name="dav">    1.12    1.12</time>
   <time name="total">    1.13    1.13</time>
   <energy>
    <i name="alphaZ">      3.29319482 </i>
    <i name="ewald">   -226.94523405 </i>
    <i name="hartreedc">    -15.17067378 </i>
    <i name="XCdc">    -18.06039216 </i>
    <i name="pawpsdc">    829.54265742 </i>
    <i name="pawaedc">   -794.56149267 </i>
    <i name="eentropy">     -0.00000008 </i>
    <i name="bandstr">      7.89098128 </i>
    <i name="atom">    206.13251344 </i>
    <i name="e_fr_energy">     -7.87844578 </i>
    <i name="e_wo_entrp">     -7.87844570 </i>
    <i name="e_0_energy">     -7.87844574 </i>
   </energy>
  </scstep>
  <scstep>
   <time name="dav">    0.93    0.94</time>
   <time name="total">    0.94    0.94</time>
   <energy>
    <i name="e_fr_energy">     -8.88919382 </i>
    <i name="e_wo_entrp">     -8.88919347 </i>
    <i name="e_0_energy">     -8.88919365 </i>
   </energy>
  </scstep>
  <scstep>
   <time name="dav">    0.94    0.94</time>
   <time name="total">    0.94    0.94</time>
   <energy>
    <i name="e_fr_energy">     -8.89649245 </i>
    <i name="e_wo_entrp">     -8.89649209 </i>
    <i name="e_0_energy">     -8.89649227 </i>
   </energy>
  </scstep>
  <scstep>
   <time name="dav">    0.95    0.95</time>
   <time name="total">    0.95    0.96</time>
   <energy>
    <i name="e_fr_energy">     -8.89652496 </i>
    <i name="e_wo_entrp">     -8.89652459 </i>
    <i name="e_0_energy">     -8.89652477 </i>
   </energy>
  </scstep>
  <scstep>
   <time name="dav">    0.94    0.94</time>
   <time name="total">    0.95    0.95</time>
   <energy>
    <i name="e_fr_energy">     -8.89652519 </i>
    <i name="e_wo_entrp">     -8.89652483 </i>
    <i name="e_0_energy">     -8.89652501 </i>
   </energy>
  </scstep>
  <scstep>
   <time name="dav">    0.89    0.89</time>
   <time name="total">    0.89    0.90</time>
   <energy>
    <i name="e_fr_energy">     -8.89652519 </i>
    <i name="e_wo_entrp">     -8.89652483 </i>
    <i name="e_0_energy">     -8.89652501 </i>
   </energy>
  </scstep>
  <scstep>
   <time name="dav">    0.78    0.78</time>
   <time name="total">    0.78    0.79</time>
   <energy>
    <i name="e_fr_energy">     -8.89652519 </i>
    <i name="e_wo_entrp">     -8.89652483 </i>
    <i name="e_0_energy">     -8.89652501 </i>
   </energy>
  </scstep>
  <scstep>
   <time name="dav">    0.67    0.67</time>
   <time name="total">    0.67    0.68</time>
   <energy>
    <i name="alphaZ">      3.29319482 </i>
    <i name="ewald">   -226.94523405 </i>
    <i name="hartreedc">    -15.17067378 </i>
    <i name="XCdc">    -18.06039216 </i>
    <i name="pawpsdc">    829.54265742 </i>
    <i name="pawaedc">   -794.56149267 </i>
    <i name="eentropy">     -0.00000036 </i>
    <i name="bandstr">      6.87290215 </i>
    <i name="atom">    206.13251344 </i>
    <i name="e_fr_energy">     -8.89652519 </i>
    <i name="e_wo_entrp">     -8.89652483 </i>
    <i name="e_0_energy">     -8.89652501 </i>
   </energy>
  </scstep>
  <structure>
   <crystal>
    <varray name="basis" >
     <v>       0.00000000       2.73436000       2.73436000 </v>
     <v>       2.73436000       0.00000000       2.73436000 </v>
     <v>       2.73436000       2.73436000       0.00000000 </v>
    </varray>
    <i name="volume">     40.88811341 </i>
    <varray name="rec_basis" >
     <v>      -0.18285815       0.18285815       0.18285815 </v>
     <v>       0.18285815      -0.18285815       0.18285815 </v>
     <v>       0.18285815       0.18285815      -0.18285815 </v>
    </varray>
   </crystal>
   <varray name="positions" >
    <v>       0.00000000       0.00000000       0.00000000 </v>
    <v>       0.25000000       0.25000000       0.25000000 </v>
   </varray>
  </structure>
  <varray name="forces" >
   <v>       0.00000000      -0.00000000      -0.00000000 </v>
   <v>      -0.00000000       0.00000000       0.00000000 </v>
  </varray>
  <varray name="stress" >
   <v>      69.09348124      -0.00000000       0.00000000 </v>
   <v>       0.00000000      69.09348124       0.00000000 </v>
   <v>      -0.00000000      -0.00000000      69.09348124 </v>
  </varray>
  <energy>
   <i name="e_fr_energy">     -8.89652519 </i>
   <i name="e_wo_entrp">     -8.89652501 </i>
   <i name="e_0_energy">     -0.00000036 </i>
  </energy>
  <time name="totalsc">    7.46    7.50</time>
  <eigenvalues>
   <array>
    <dimension dim="1">band</dimension>
    <dimension dim="2">kpoint</dimension>
    <dimension dim="3">spin</dimension>
    <field>eigene</field>
    <field>occ</field>
    <set>
     <set comment="spin 1">
      <set comment="kpoint 1">
       <r>   -6.1988    1.0000 </r>
       <r>    5.6158    1.0000 </r>
       <r>    5.6158    1.0000 </r>
       <r>    5.6158    1.0000 </r>
       <r>    8.1728    0.0000 </r>
       <r>    8.1729    0.0000 </r>
       <r>    8.1729    0.0000 </r>
       <r>    8.7497    0.0000 </r>
       <r>   13.3252    0.0000 </r>
       <r>   13.3252    0.0000 </r>
       <r>   13.4937    0.0000 </r>
       <r>   16.7984    0.0000 </r>
       <r>   16.7984    0.0000 </r>
       <r>   16.7984    0.0000 </r>
       <r>   20.8902    0.0000 </r>
       <r>   28.4702    0.0000 </r>
       <r>   28.4702    0.0000 </r>
       <r>   28.4702    0.0000 </r>
       <r>   29.5513    0.0000 </r>
       <r>   29.5513    0.0000 </r>
      </set>
      <set comment="kpoint 2">
       <r>   -6.1881    1.0000 </r>
       <r>    5.5387    1.0000 </r>
       <r>    5.5703    1.0000 </r>
       <r>    5.5703    1.0000 </r>
       <r>    8.1462    0.0000 </r>
       <r>    8.2316    0.0000 </r>
       <r>    8.2316    0.0000 </r>
       <r>    8.8253    0.0000 </r>
       <r>   13.2376    0.0000 </r>
       <r>   13.3371    0.0000 </r>
       <r>   13.5417    0.0000 </r>
       <r>   16.8172    0.0000 </r>
       <r>   16.8172    0.0000 </r>
       <r>   16.8598    0.0000 </r>
       <r>   20.9688    0.0000 </r>
       <r>   28.2952    0.0000 </r>
       <r>   28.2952    0.0000 </r>
       <r>   28.4840    0.0000 </r>
       <r>   29.4114    0.0000 </r>
       <r>   29.4478    0.0000 </r>
      </set>
      <set comment="kpoint 3">
       <r>   -6.1558    1.0000 </r>
       <r>    5.3272    1.0000 </r>
       <r>    5.4452    1.0000 </r>
       <r>    5.4452    1.0000 </r>
       <r>    8.0694    0.0000 </r>
       <r>    8.3964    0.0000 </r>
       <r>    8.3964    0.0000 </r>
       <r>    9.0290    0.0000 </r>
       <r>   13.0026    0.0000 </r>
       <r>   13.3729    0.0000 </r>
       <r>   13.6826    0.0000 </r>
       <r>   16.8736    0.0000 </r>
       <r>   16.8736    0.0000 </r>
       <r>   17.0220    0.0000 </r>
       <r>   21.2010    0.0000 </r>
       <r>   27.8557    0.0000 </r>
       <r>   27.8557    0.0000 </r>
       <r>   28.5255    0.0000 </r>
       <r>   29.0337    0.0000 </r>
       <r>   29.1839    0.0000 </r>
      </set>
      <set comment="kpoint 4">
       <r>   -6.1021    1.0000 </r>
       <r>    5.0225    1.0000 </r>
       <r>    5.2653    1.0000 </r>
       <r>    5.2653    1.0000 </r>
       <r>    7.9508    0.0000 </r>
       <r>    8.6423    0.0000 </r>
       <r>    8.6423    0.0000 </r>
       <r>    9.3091    0.0000 </r>
       <r>   12.6832    0.0000 </r>
       <r>   13.4326    0.0000 </r>
       <r>   13.9076    0.0000 </r>
       <r>   16.9673    0.0000 </r>
       <r>   16.9673    0.0000 </r>
       <r>   17.2419    0.0000 </r>
       <r>   21.5765    0.0000 </r>
       <r>   27.2803    0.0000 </r>
       <r>   27.2803    0.0000 </r>
       <r>   28.5009    0.0000 </r>
       <r>   28.5956    0.0000 </r>
       <r>   28.8290    0.0000 </r>
      </set>
      <set comment="kpoint 5">
       <r>   -6.0271    1.0000 </r>
       <r>    4.6602    1.0000 </r>
       <r>    5.0544    1.0000 </r>
       <r>    5.0544    1.0000 </r>
       <r>    7.8012    0.0000 </r>
       <r>    8.9452    0.0000 </r>
       <r>    8.9452    0.0000 </r>
       <r>    9.6044    0.0000 </r>
       <r>   12.3528    0.0000 </r>
       <r>   13.5161    0.0000 </r>
       <r>   14.2053    0.0000 </r>
       <r>   17.0980    0.0000 </r>
       <r>   17.0980    0.0000 </r>
       <r>   17.4871    0.0000 </r>
       <r>   22.0776    0.0000 </r>
       <r>   26.6433    0.0000 </r>
       <r>   26.6433    0.0000 </r>
       <r>   27.8806    0.0000 </r>
       <r>   28.4230    0.0000 </r>
       <r>   28.6964    0.0000 </r>
      </set>
      <set comment="kpoint 6">
       <r>   -5.9307    1.0000 </r>
       <r>    4.2637    1.0000 </r>
       <r>    4.8294    1.0000 </r>
       <r>    4.8294    1.0000 </r>
       <r>    7.6316    0.0000 </r>
       <r>    9.2877    0.0000 </r>
       <r>    9.2877    0.0000 </r>
       <r>    9.8362    0.0000 </r>
       <r>   12.1003    0.0000 </r>
       <r>   13.6234    0.0000 </r>
       <r>   14.5640    0.0000 </r>
       <r>   17.2649    0.0000 </r>
       <r>   17.2649    0.0000 </r>
       <r>   17.7433    0.0000 </r>
       <r>   22.6812    0.0000 </r>
       <r>   25.9811    0.0000 </r>
       <r>   25.9811    0.0000 </r>
       <r>   27.2149    0.0000 </r>
       <r>   27.9860    0.0000 </r>
       <r>   28.8307    0.0000 </r>
      </set>
      <set comment="kpoint 7">
       <r>   -5.8133    1.0000 </r>
       <r>    3.8469    1.0000 </r>
       <r>    4.6013    1.0000 </r>
       <r>    4.6013    1.0000 </r>
       <r>    7.4519    0.0000 </r>
       <r>    9.6585    0.0000 </r>
       <r>    9.6585    0.0000 </r>
       <r>    9.9029    0.0000 </r>
       <r>   12.0348    0.0000 </r>
       <r>   13.7546    0.0000 </r>
       <r>   14.9725    0.0000 </r>
       <r>   17.4667    0.0000 </r>
       <r>   17.4667    0.0000 </r>
       <r>   18.0085    0.0000 </r>
       <r>   23.3625    0.0000 </r>
       <r>   25.3136    0.0000 </r>
       <r>   25.3136    0.0000 </r>
       <r>   26.5280    0.0000 </r>
       <r>   27.5300    0.0000 </r>
       <r>   29.0033    0.0000 </r>
      </set>
      <set comment="kpoint 8">
       <r>   -5.6749    1.0000 </r>
       <r>    3.4177    1.0000 </r>
       <r>    4.3772    1.0000 </r>
       <r>    4.3772    1.0000 </r>
       <r>    7.2701    0.0000 </r>
       <r>    9.7581    0.0000 </r>
       <r>   10.0499    0.0000 </r>
       <r>   10.0499    0.0000 </r>
       <r>   12.2076    0.0000 </r>
       <r>   13.9095    0.0000 </r>
       <r>   15.4210    0.0000 </r>
       <r>   17.7010    0.0000 </r>
       <r>   17.7010    0.0000 </r>
       <r>   18.2864    0.0000 </r>
       <r>   24.0962    0.0000 </r>
       <r>   24.6536    0.0000 </r>
       <r>   24.6536    0.0000 </r>
       <r>   25.8346    0.0000 </r>
       <r>   27.0636    0.0000 </r>
       <r>   29.2213    0.0000 </r>
      </set>
      <set comment="kpoint 9">
       <r>   -5.5158    1.0000 </r>
       <r>    2.9812    1.0000 </r>
       <r>    4.1616    1.0000 </r>
       <r>    4.1616    1.0000 </r>
       <r>    7.0923    0.0000 </r>
       <r>    9.4691    0.0000 </r>
       <r>   10.4570    0.0000 </r>
       <r>   10.4570    0.0000 </r>
       <r>   12.5548    0.0000 </r>
       <r>   14.0882    0.0000 </r>
       <r>   15.9007    0.0000 </r>
       <r>   17.9634    0.0000 </r>
       <r>   17.9634    0.0000 </r>
       <r>   18.5820    0.0000 </r>
       <r>   24.0118    0.0000 </r>
       <r>   24.0118    0.0000 </r>
       <r>   24.8568    0.0000 </r>
       <r>   25.1431    0.0000 </r>
       <r>   26.5943    0.0000 </r>
       <r>   29.4957    0.0000 </r>
      </set>
      <set comment="kpoint 10">
       <r>   -5.3361    1.0000 </r>
       <r>    2.5404    1.0000 </r>
       <r>    3.9576    1.0000 </r>
       <r>    3.9576    1.0000 </r>
       <r>    6.9236    0.0000 </r>
       <r>    9.1183    0.0000 </r>
       <r>   10.8764    0.0000 </r>
       <r>   10.8764    0.0000 </r>
       <r>   12.9958    0.0000 </r>
       <r>   14.2905    0.0000 </r>
       <r>   16.4027    0.0000 </r>
       <r>   18.2460    0.0000 </r>
       <r>   18.2460    0.0000 </r>
       <r>   18.9001    0.0000 </r>
       <r>   23.4000    0.0000 </r>
       <r>   23.4000    0.0000 </r>
       <r>   24.4596    0.0000 </r>
       <r>   25.6169    0.0000 </r>
       <r>   26.1297    0.0000 </r>
       <r>   29.8416    0.0000 </r>
      </set>
      <set comment="kpoint 11">
       <r>   -5.1363    1.0000 </r>
       <r>    2.0975    1.0000 </r>
       <r>    3.7674    1.0000 </r>
       <r>    3.7674    1.0000 </r>
       <r>    6.7676    0.0000 </r>
       <r>    8.7519    0.0000 </r>
       <r>   11.3056    0.0000 </r>
       <r>   11.3056    0.0000 </r>
       <r>   13.4847    0.0000 </r>
       <r>   14.5165    0.0000 </r>
       <r>   16.9176    0.0000 </r>
       <r>   18.5338    0.0000 </r>
       <r>   18.5338    0.0000 </r>
       <r>   19.2450    0.0000 </r>
       <r>   22.8357    0.0000 </r>
       <r>   22.8357    0.0000 </r>
       <r>   23.7876    0.0000 </r>
       <r>   25.6783    0.0000 </r>
       <r>   26.3471    0.0000 </r>
       <r>   30.2780    0.0000 </r>
      </set>
      <set comment="kpoint 12">
       <r>   -4.9166    1.0000 </r>
       <r>    1.6542    1.0000 </r>
       <r>    3.5923    1.0000 </r>
       <r>    3.5923    1.0000 </r>
       <r>    6.6275    0.0000 </r>
       <r>    8.3928    0.0000 </r>
       <r>   11.7429    0.0000 </r>
       <r>   11.7429    0.0000 </r>
       <r>   13.9982    0.0000 </r>
       <r>   14.7661    0.0000 </r>
       <r>   17.4334    0.0000 </r>
       <r>   18.7973    0.0000 </r>
       <r>   18.7973    0.0000 </r>
       <r>   19.6200    0.0000 </r>
       <r>   22.3498    0.0000 </r>
       <r>   22.3498    0.0000 </r>
       <r>   23.1299    0.0000 </r>
       <r>   25.2508    0.0000 </r>
       <r>   27.0188    0.0000 </r>
       <r>   30.8217    0.0000 </r>
      </set>
      <set comment="kpoint 13">
       <r>   -4.6774    1.0000 </r>
       <r>    1.2118    1.0000 </r>
       <r>    3.4337    1.0000 </r>
       <r>    3.4337    1.0000 </r>
       <r>    6.5055    0.0000 </r>
       <r>    8.0523    0.0000 </r>
       <r>   12.1872    0.0000 </r>
       <r>   12.1872    0.0000 </r>
       <r>   14.5235    0.0000 </r>
       <r>   15.0393    0.0000 </r>
       <r>   17.9344    0.0000 </r>
       <r>   18.9816    0.0000 </r>
       <r>   18.9816    0.0000 </r>
       <r>   20.0278    0.0000 </r>
       <r>   21.9980    0.0000 </r>
       <r>   21.9980    0.0000 </r>
       <r>   22.4884    0.0000 </r>
       <r>   24.8620    0.0000 </r>
       <r>   27.6130    0.0000 </r>
       <r>   30.7842    0.0000 </r>
      </set>
      <set comment="kpoint 14">
       <r>   -4.4192    1.0000 </r>
       <r>    0.7717    1.0000 </r>
       <r>    3.2922    1.0000 </r>
       <r>    3.2922    1.0000 </r>
       <r>    6.4036    0.0000 </r>
       <r>    7.7367    0.0000 </r>
       <r>   12.6375    0.0000 </r>
       <r>   12.6375    0.0000 </r>
       <r>   15.0525    0.0000 </r>
       <r>   15.3358    0.0000 </r>
       <r>   18.3980    0.0000 </r>
       <r>   19.0085    0.0000 </r>
       <r>   19.0085    0.0000 </r>
       <r>   20.4701    0.0000 </r>
       <r>   21.8586    0.0000 </r>
       <r>   21.8586    0.0000 </r>
       <r>   21.8644    0.0000 </r>
       <r>   24.5326    0.0000 </r>
       <r>   28.1264    0.0000 </r>
       <r>   30.1928    0.0000 </r>
      </set>
      <set comment="kpoint 15">
       <r>   -4.1424    1.0000 </r>
       <r>    0.3352    1.0000 </r>
       <r>    3.1686    1.0000 </r>
       <r>    3.1686    1.0000 </r>
       <r>    6.3235    0.0000 </r>
       <r>    7.4493    0.0000 </r>
       <r>   13.0931    0.0000 </r>
       <r>   13.0931    0.0000 </r>
       <r>   15.5792    0.0000 </r>
       <r>   15.6558    0.0000 </r>
       <r>   18.7925    0.0000 </r>
       <r>   18.8342    0.0000 </r>
       <r>   18.8342    0.0000 </r>
       <r>   20.9480    0.0000 </r>
       <r>   21.2592    0.0000 </r>
       <r>   21.9751    0.0000 </r>
       <r>   21.9751    0.0000 </r>
       <r>   24.2915    0.0000 </r>
       <r>   28.5684    0.0000 </r>
       <r>   29.5198    0.0000 </r>
      </set>
      <set comment="kpoint 16">
       <r>   -3.8478    1.0000 </r>
       <r>   -0.0962    1.0000 </r>
       <r>    3.0633    1.0000 </r>
       <r>    3.0633    1.0000 </r>
       <r>    6.2665    0.0000 </r>
       <r>    7.1920    0.0000 </r>
       <r>   13.5533    0.0000 </r>
       <r>   13.5533    0.0000 </r>
       <r>   15.9989    0.0000 </r>
       <r>   16.0987    0.0000 </r>
       <r>   18.5004    0.0000 </r>
       <r>   18.5004    0.0000 </r>
       <r>   19.0787    0.0000 </r>
       <r>   20.6736    0.0000 </r>
       <r>   21.4610    0.0000 </r>
       <r>   22.3053    0.0000 </r>
       <r>   22.3053    0.0000 </r>
       <r>   24.1726    0.0000 </r>
       <r>   28.8051    0.0000 </r>
       <r>   28.9446    0.0000 </r>
      </set>
      <set comment="kpoint 17">
       <r>   -3.5358    1.0000 </r>
       <r>   -0.5212    1.0000 </r>
       <r>    2.9767    1.0000 </r>
       <r>    2.9767    1.0000 </r>
       <r>    6.2339    0.0000 </r>
       <r>    6.9655    0.0000 </r>
       <r>   14.0164    0.0000 </r>
       <r>   14.0164    0.0000 </r>
       <r>   16.3653    0.0000 </r>
       <r>   16.6068    0.0000 </r>
       <r>   18.0782    0.0000 </r>
       <r>   18.0782    0.0000 </r>
       <r>   19.2200    0.0000 </r>
       <r>   20.1082    0.0000 </r>
       <r>   22.0073    0.0000 </r>
       <r>   22.7779    0.0000 </r>
       <r>   22.7779    0.0000 </r>
       <r>   24.2014    0.0000 </r>
       <r>   28.0869    0.0000 </r>
       <r>   28.6018    0.0000 </r>
      </set>
      <set comment="kpoint 18">
       <r>   -3.2072    1.0000 </r>
       <r>   -0.9385    1.0000 </r>
       <r>    2.9091    1.0000 </r>
       <r>    2.9091    1.0000 </r>
       <r>    6.2267    0.0000 </r>
       <r>    6.7702    0.0000 </r>
       <r>   14.4792    0.0000 </r>
       <r>   14.4792    0.0000 </r>
       <r>   16.7546    0.0000 </r>
       <r>   17.0991    0.0000 </r>
       <r>   17.6187    0.0000 </r>
       <r>   17.6187    0.0000 </r>
       <r>   19.2021    0.0000 </r>
       <r>   19.5636    0.0000 </r>
       <r>   22.5819    0.0000 </r>
       <r>   23.3429    0.0000 </r>
       <r>   23.3429    0.0000 </r>
       <r>   24.3659    0.0000 </r>
       <r>   27.4099    0.0000 </r>
       <r>   27.7735    0.0000 </r>
      </set>
      <set comment="kpoint 19">
       <r>   -2.8628    1.0000 </r>
       <r>   -1.3466    1.0000 </r>
       <r>    2.8607    1.0000 </r>
       <r>    2.8607    1.0000 </r>
       <r>    6.2460    0.0000 </r>
       <r>    6.6057    0.0000 </r>
       <r>   14.9324    0.0000 </r>
       <r>   14.9324    0.0000 </r>
       <r>   17.1563    0.0000 </r>
       <r>   17.1563    0.0000 </r>
       <r>   17.1668    0.0000 </r>
       <r>   17.5705    0.0000 </r>
       <r>   19.0403    0.0000 </r>
       <r>   19.0409    0.0000 </r>
       <r>   23.1752    0.0000 </r>
       <r>   23.9713    0.0000 </r>
       <r>   23.9713    0.0000 </r>
       <r>   24.5758    0.0000 </r>
       <r>   26.8601    0.0000 </r>
       <r>   26.9665    0.0000 </r>
      </set>
      <set comment="kpoint 20">
       <r>   -2.5035    1.0000 </r>
       <r>   -1.7443    1.0000 </r>
       <r>    2.8316    1.0000 </r>
       <r>    2.8316    1.0000 </r>
       <r>    6.2927    0.0000 </r>
       <r>    6.4718    0.0000 </r>
       <r>   15.3417    0.0000 </r>
       <r>   15.3417    0.0000 </r>
       <r>   16.7375    0.0000 </r>
       <r>   16.7375    0.0000 </r>
       <r>   17.6017    0.0000 </r>
       <r>   18.0138    0.0000 </r>
       <r>   18.5387    0.0000 </r>
       <r>   18.7690    0.0000 </r>
       <r>   23.7648    0.0000 </r>
       <r>   24.6104    0.0000 </r>
       <r>   24.6396    0.0000 </r>
       <r>   24.6396    0.0000 </r>
       <r>   26.1937    0.0000 </r>
       <r>   26.1944    0.0000 </r>
      </set>
      <set comment="kpoint 21">
       <r>   -2.1303    1.0000 </r>
       <r>   -2.1303    1.0000 </r>
       <r>    2.8218    1.0000 </r>
       <r>    2.8218    1.0000 </r>
       <r>    6.3677    0.0000 </r>
       <r>    6.3677    0.0000 </r>
       <r>   15.5525    0.0000 </r>
       <r>   15.5525    0.0000 </r>
       <r>   16.5230    0.0000 </r>
       <r>   16.5230    0.0000 </r>
       <r>   18.0591    0.0000 </r>
       <r>   18.0591    0.0000 </r>
       <r>   18.4187    0.0000 </r>
       <r>   18.4187    0.0000 </r>
       <r>   24.2926    0.0000 </r>
       <r>   24.2926    0.0000 </r>
       <r>   25.1728    0.0000 </r>
       <r>   25.1728    0.0000 </r>
       <r>   25.6261    0.0000 </r>
       <r>   25.6261    0.0000 </r>
      </set>
      <set comment="kpoint 22">
       <r>   -2.1288    1.0000 </r>
       <r>   -2.1288    1.0000 </r>
       <r>    2.8076    1.0000 </r>
       <r>    2.8076    1.0000 </r>
       <r>    6.3941    0.0000 </r>
       <r>    6.3941    0.0000 </r>
       <r>   15.5102    0.0000 </r>
       <r>   15.5102    0.0000 </r>
       <r>   16.4572    0.0000 </r>
       <r>   16.4572    0.0000 </r>
       <r>   18.1066    0.0000 </r>
       <r>   18.1066    0.0000 </r>
       <r>   18.4840    0.0000 </r>
       <r>   18.4840    0.0000 </r>
       <r>   24.2172    0.0000 </r>
       <r>   24.2172    0.0000 </r>
       <r>   25.1672    0.0000 </r>
       <r>   25.1672    0.0000 </r>
       <r>   25.6877    0.0000 </r>
       <r>   25.6877    0.0000 </r>
      </set>
      <set comment="kpoint 23">
       <r>   -2.1242    1.0000 </r>
       <r>   -2.1242    1.0000 </r>
       <r>    2.7662    1.0000 </r>
       <r>    2.7662    1.0000 </r>
       <r>    6.4718    0.0000 </r>
       <r>    6.4718    0.0000 </r>
       <r>   15.3717    0.0000 </r>
       <r>   15.3717    0.0000 </r>
       <r>   16.3231    0.0000 </r>
       <r>   16.3231    0.0000 </r>
       <r>   18.1732    0.0000 </r>
       <r>   18.1732    0.0000 </r>
       <r>   18.7038    0.0000 </r>
       <r>   18.7038    0.0000 </r>
       <r>   24.0357    0.0000 </r>
       <r>   24.0357    0.0000 </r>
       <r>   25.1213    0.0000 </r>
       <r>   25.1213    0.0000 </r>
       <r>   25.8631    0.0000 </r>
       <r>   25.8631    0.0000 </r>
      </set>
      <set comment="kpoint 24">
       <r>   -2.1167    1.0000 </r>
       <r>   -2.1167    1.0000 </r>
       <r>    2.7017    1.0000 </r>
       <r>    2.7018    1.0000 </r>
       <r>    6.5970    0.0000 </r>
       <r>    6.5970    0.0000 </r>
       <r>   15.1258    0.0000 </r>
       <r>   15.1258    0.0000 </r>
       <r>   16.2100    0.0000 </r>
       <r>   16.2100    0.0000 </r>
       <r>   18.2129    0.0000 </r>
       <r>   18.2129    0.0000 </r>
       <r>   19.0457    0.0000 </r>
       <r>   19.0457    0.0000 </r>
       <r>   23.8108    0.0000 </r>
       <r>   23.8108    0.0000 </r>
       <r>   25.0305    0.0000 </r>
       <r>   25.0305    0.0000 </r>
       <r>   26.1070    0.0000 </r>
       <r>   26.1070    0.0000 </r>
      </set>
      <set comment="kpoint 25">
       <r>   -2.1066    1.0000 </r>
       <r>   -2.1066    1.0000 </r>
       <r>    2.6198    1.0000 </r>
       <r>    2.6198    1.0000 </r>
       <r>    6.7642    0.0000 </r>
       <r>    6.7642    0.0000 </r>
       <r>   14.7941    0.0000 </r>
       <r>   14.7941    0.0000 </r>
       <r>   16.1415    0.0000 </r>
       <r>   16.1415    0.0000 </r>
       <r>   18.2414    0.0000 </r>
       <r>   18.2414    0.0000 </r>
       <r>   19.4482    0.0000 </r>
       <r>   19.4482    0.0000 </r>
       <r>   23.5756    0.0000 </r>
       <r>   23.5756    0.0000 </r>
       <r>   24.9158    0.0000 </r>
       <r>   24.9158    0.0000 </r>
       <r>   26.3734    0.0000 </r>
       <r>   26.3734    0.0000 </r>
      </set>
      <set comment="kpoint 26">
       <r>   -2.0943    1.0000 </r>
       <r>   -2.0943    1.0000 </r>
       <r>    2.5263    1.0000 </r>
       <r>    2.5263    1.0000 </r>
       <r>    6.9678    0.0000 </r>
       <r>    6.9678    0.0000 </r>
       <r>   14.4116    0.0000 </r>
       <r>   14.4116    0.0000 </r>
       <r>   16.1041    0.0000 </r>
       <r>   16.1041    0.0000 </r>
       <r>   18.2677    0.0000 </r>
       <r>   18.2677    0.0000 </r>
       <r>   19.8794    0.0000 </r>
       <r>   19.8794    0.0000 </r>
       <r>   23.3454    0.0000 </r>
       <r>   23.3454    0.0000 </r>
       <r>   24.7927    0.0000 </r>
       <r>   24.7927    0.0000 </r>
       <r>   26.6320    0.0000 </r>
       <r>   26.6320    0.0000 </r>
      </set>
      <set comment="kpoint 27">
       <r>   -2.0801    1.0000 </r>
       <r>   -2.0801    1.0000 </r>
       <r>    2.4268    1.0000 </r>
       <r>    2.4268    1.0000 </r>
       <r>    7.2023    0.0000 </r>
       <r>    7.2023    0.0000 </r>
       <r>   14.0027    0.0000 </r>
       <r>   14.0027    0.0000 </r>
       <r>   16.0840    0.0000 </r>
       <r>   16.0840    0.0000 </r>
       <r>   18.2948    0.0000 </r>
       <r>   18.2948    0.0000 </r>
       <r>   20.3239    0.0000 </r>
       <r>   20.3239    0.0000 </r>
       <r>   23.1288    0.0000 </r>
       <r>   23.1289    0.0000 </r>
       <r>   24.6701    0.0000 </r>
       <r>   24.6701    0.0000 </r>
       <r>   26.8579    0.0000 </r>
       <r>   26.8579    0.0000 </r>
      </set>
      <set comment="kpoint 28">
       <r>   -2.0646    1.0000 </r>
       <r>   -2.0646    1.0000 </r>
       <r>    2.3262    1.0000 </r>
       <r>    2.3262    1.0000 </r>
       <r>    7.4631    0.0000 </r>
       <r>    7.4631    0.0000 </r>
       <r>   13.5812    0.0000 </r>
       <r>   13.5812    0.0000 </r>
       <r>   16.0732    0.0000 </r>
       <r>   16.0732    0.0000 </r>
       <r>   18.3231    0.0000 </r>
       <r>   18.3231    0.0000 </r>
       <r>   20.7715    0.0000 </r>
       <r>   20.7715    0.0000 </r>
       <r>   22.9328    0.0000 </r>
       <r>   22.9328    0.0000 </r>
       <r>   24.5534    0.0000 </r>
       <r>   24.5534    0.0000 </r>
       <r>   27.0213    0.0000 </r>
       <r>   27.0213    0.0000 </r>
      </set>
      <set comment="kpoint 29">
       <r>   -2.0485    1.0000 </r>
       <r>   -2.0485    1.0000 </r>
       <r>    2.2287    1.0000 </r>
       <r>    2.2287    1.0000 </r>
       <r>    7.7464    0.0000 </r>
       <r>    7.7464    0.0000 </r>
       <r>   13.1546    0.0000 </r>
       <r>   13.1546    0.0000 </r>
       <r>   16.0678    0.0000 </r>
       <r>   16.0678    0.0000 </r>
       <r>   18.3522    0.0000 </r>
       <r>   18.3522    0.0000 </r>
       <r>   21.2114    0.0000 </r>
       <r>   21.2114    0.0000 </r>
       <r>   22.7670    0.0000 </r>
       <r>   22.7670    0.0000 </r>
       <r>   24.4458    0.0000 </r>
       <r>   24.4458    0.0000 </r>
       <r>   27.0803    0.0000 </r>
       <r>   27.0803    0.0000 </r>
      </set>
      <set comment="kpoint 30">
       <r>   -2.0324    1.0000 </r>
       <r>   -2.0324    1.0000 </r>
       <r>    2.1377    1.0000 </r>
       <r>    2.1377    1.0000 </r>
       <r>    8.0489    0.0000 </r>
       <r>    8.0489    0.0000 </r>
       <r>   12.7278    0.0000 </r>
       <r>   12.7278    0.0000 </r>
       <r>   16.0655    0.0000 </r>
       <r>   16.0655    0.0000 </r>
       <r>   18.3813    0.0000 </r>
       <r>   18.3813    0.0000 </r>
       <r>   21.6198    0.0000 </r>
       <r>   21.6198    0.0000 </r>
       <r>   22.6542    0.0000 </r>
       <r>   22.6542    0.0000 </r>
       <r>   24.3498    0.0000 </r>
       <r>   24.3498    0.0000 </r>
       <r>   26.9958    0.0000 </r>
       <r>   26.9958    0.0000 </r>
      </set>
      <set comment="kpoint 31">
       <r>   -2.0171    1.0000 </r>
       <r>   -2.0171    1.0000 </r>
       <r>    2.0561    1.0000 </r>
       <r>    2.0561    1.0000 </r>
       <r>    8.3676    0.0000 </r>
       <r>    8.3676    0.0000 </r>
       <r>   12.3040    0.0000 </r>
       <r>   12.3040    0.0000 </r>
       <r>   16.0650    0.0000 </r>
       <r>   16.0650    0.0000 </r>
       <r>   18.4093    0.0000 </r>
       <r>   18.4093    0.0000 </r>
       <r>   21.9238    0.0000 </r>
       <r>   21.9238    0.0000 </r>
       <r>   22.6663    0.0000 </r>
       <r>   22.6663    0.0000 </r>
       <r>   24.2668    0.0000 </r>
       <r>   24.2669    0.0000 </r>
       <r>   26.7731    0.0000 </r>
       <r>   26.7731    0.0000 </r>
      </set>
      <set comment="kpoint 32">
       <r>   -2.0034    1.0000 </r>
       <r>   -2.0034    1.0000 </r>
       <r>    1.9862    1.0000 </r>
       <r>    1.9862    1.0000 </r>
       <r>    8.6997    0.0000 </r>
       <r>    8.6997    0.0000 </r>
       <r>   11.8861    0.0000 </r>
       <r>   11.8862    0.0000 </r>
       <r>   16.0654    0.0000 </r>
       <r>   16.0654    0.0000 </r>
       <r>   18.4348    0.0000 </r>
       <r>   18.4348    0.0000 </r>
       <r>   22.0234    0.0000 </r>
       <r>   22.0234    0.0000 </r>
       <r>   22.9019    0.0000 </r>
       <r>   22.9019    0.0000 </r>
       <r>   24.1985    0.0000 </r>
       <r>   24.1985    0.0000 </r>
       <r>   26.4575    0.0000 </r>
       <r>   26.4575    0.0000 </r>
      </set>
      <set comment="kpoint 33">
       <r>   -1.9918    1.0000 </r>
       <r>   -1.9918    1.0000 </r>
       <r>    1.9299    1.0000 </r>
       <r>    1.9299    1.0000 </r>
       <r>    9.0415    0.0000 </r>
       <r>    9.0415    0.0000 </r>
       <r>   11.4779    0.0000 </r>
       <r>   11.4779    0.0000 </r>
       <r>   16.0662    0.0000 </r>
       <r>   16.0662    0.0000 </r>
       <r>   18.4565    0.0000 </r>
       <r>   18.4565    0.0000 </r>
       <r>   22.0022    0.0000 </r>
       <r>   22.0022    0.0000 </r>
       <r>   23.2729    0.0000 </r>
       <r>   23.2729    0.0000 </r>
       <r>   24.1464    0.0000 </r>
       <r>   24.1464    0.0000 </r>
       <r>   26.0929    0.0000 </r>
       <r>   26.0929    0.0000 </r>
      </set>
      <set comment="kpoint 34">
       <r>   -1.9831    1.0000 </r>
       <r>   -1.9831    1.0000 </r>
       <r>    1.8886    1.0000 </r>
       <r>    1.8886    1.0000 </r>
       <r>    9.3858    0.0000 </r>
       <r>    9.3858    0.0000 </r>
       <r>   11.0862    0.0000 </r>
       <r>   11.0862    0.0000 </r>
       <r>   16.0670    0.0000 </r>
       <r>   16.0670    0.0000 </r>
       <r>   18.4730    0.0000 </r>
       <r>   18.4730    0.0000 </r>
       <r>   21.9604    0.0000 </r>
       <r>   21.9604    0.0000 </r>
       <r>   23.6646    0.0000 </r>
       <r>   23.6646    0.0000 </r>
       <r>   24.1162    0.0000 </r>
       <r>   24.1162    0.0000 </r>
       <r>   25.7133    0.0000 </r>
       <r>   25.7133    0.0000 </r>
      </set>
      <set comment="kpoint 35">
       <r>   -1.9776    1.0000 </r>
       <r>   -1.9776    1.0000 </r>
       <r>    1.8634    1.0000 </r>
       <r>    1.8634    1.0000 </r>
       <r>    9.7088    0.0000 </r>
       <r>    9.7088    0.0000 </r>
       <r>   10.7348    0.0000 </r>
       <r>   10.7348    0.0000 </r>
       <r>   16.0676    0.0000 </r>
       <r>   16.0676    0.0000 </r>
       <r>   18.4835    0.0000 </r>
       <r>   18.4835    0.0000 </r>
       <r>   21.9293    0.0000 </r>
       <r>   21.9293    0.0000 </r>
       <r>   23.9651    0.0000 </r>
       <r>   23.9651    0.0000 </r>
       <r>   24.1544    0.0000 </r>
       <r>   24.1544    0.0000 </r>
       <r>   25.3653    0.0000 </r>
       <r>   25.3653    0.0000 </r>
      </set>
      <set comment="kpoint 36">
       <r>   -1.9758    1.0000 </r>
       <r>   -1.9758    1.0000 </r>
       <r>    1.8549    1.0000 </r>
       <r>    1.8549    1.0000 </r>
       <r>    9.8863    0.0000 </r>
       <r>    9.8863    0.0000 </r>
       <r>   10.5479    0.0000 </r>
       <r>   10.5479    0.0000 </r>
       <r>   16.0678    0.0000 </r>
       <r>   16.0678    0.0000 </r>
       <r>   18.4870    0.0000 </r>
       <r>   18.4870    0.0000 </r>
       <r>   21.9182    0.0000 </r>
       <r>   21.9182    0.0000 </r>
       <r>   24.0194    0.0000 </r>
       <r>   24.0194    0.0000 </r>
       <r>   24.2721    0.0000 </r>
       <r>   24.2721    0.0000 </r>
       <r>   25.1903    0.0000 </r>
       <r>   25.1903    0.0000 </r>
      </set>
      <set comment="kpoint 37">
       <r>   -2.1368    1.0000 </r>
       <r>   -1.8175    1.0000 </r>
       <r>    1.7455    1.0000 </r>
       <r>    1.9833    1.0000 </r>
       <r>    9.7445    0.0000 </r>
       <r>    9.9519    0.0000 </r>
       <r>   10.4777    0.0000 </r>
       <r>   10.7165    0.0000 </r>
       <r>   15.7354    0.0000 </r>
       <r>   16.3222    0.0000 </r>
       <r>   18.2136    0.0000 </r>
       <r>   18.8278    0.0000 </r>
       <r>   21.5983    0.0000 </r>
       <r>   22.1760    0.0000 </r>
       <r>   23.7075    0.0000 </r>
       <r>   24.0457    0.0000 </r>
       <r>   24.3158    0.0000 </r>
       <r>   24.5648    0.0000 </r>
       <r>   24.9722    0.0000 </r>
       <r>   25.4257    0.0000 </r>
      </set>
      <set comment="kpoint 38">
       <r>   -2.2978    1.0000 </r>
       <r>   -1.6656    1.0000 </r>
       <r>    1.6591    1.0000 </r>
       <r>    2.1272    1.0000 </r>
       <r>    9.5875    0.0000 </r>
       <r>    9.8794    0.0000 </r>
       <r>   10.5676    0.0000 </r>
       <r>   10.9226    0.0000 </r>
       <r>   15.3366    0.0000 </r>
       <r>   16.4994    0.0000 </r>
       <r>   18.0010    0.0000 </r>
       <r>   19.2256    0.0000 </r>
       <r>   21.2263    0.0000 </r>
       <r>   22.3820    0.0000 </r>
       <r>   23.4310    0.0000 </r>
       <r>   23.8730    0.0000 </r>
       <r>   24.3512    0.0000 </r>
       <r>   24.8928    0.0000 </r>
       <r>   25.0291    0.0000 </r>
       <r>   25.6412    0.0000 </r>
      </set>
      <set comment="kpoint 39">
       <r>   -2.4564    1.0000 </r>
       <r>   -1.5242    1.0000 </r>
       <r>    1.6003    1.0000 </r>
       <r>    2.2834    1.0000 </r>
       <r>    9.4345    0.0000 </r>
       <r>    9.7330    0.0000 </r>
       <r>   10.7530    0.0000 </r>
       <r>   11.1473    0.0000 </r>
       <r>   14.8899    0.0000 </r>
       <r>   16.6095    0.0000 </r>
       <r>   17.8346    0.0000 </r>
       <r>   19.6391    0.0000 </r>
       <r>   20.8478    0.0000 </r>
       <r>   22.5516    0.0000 </r>
       <r>   23.1638    0.0000 </r>
       <r>   23.7746    0.0000 </r>
       <r>   24.1045    0.0000 </r>
       <r>   25.0858    0.0000 </r>
       <r>   25.5279    0.0000 </r>
       <r>   25.8291    0.0000 </r>
      </set>
      <set comment="kpoint 40">
       <r>   -2.6109    1.0000 </r>
       <r>   -1.3978    1.0000 </r>
       <r>    1.5738    1.0000 </r>
       <r>    2.4492    1.0000 </r>
       <r>    9.2919    0.0000 </r>
       <r>    9.5683    0.0000 </r>
       <r>   10.9781    0.0000 </r>
       <r>   11.3842    0.0000 </r>
       <r>   14.4127    0.0000 </r>
       <r>   16.6650    0.0000 </r>
       <r>   17.6998    0.0000 </r>
       <r>   19.8830    0.0000 </r>
       <r>   20.6524    0.0000 </r>
       <r>   22.6897    0.0000 </r>
       <r>   22.8890    0.0000 </r>
       <r>   23.7537    0.0000 </r>
       <r>   23.7832    0.0000 </r>
       <r>   25.3133    0.0000 </r>
       <r>   25.9869    0.0000 </r>
       <r>   26.0683    0.0000 </r>
      </set>
      <set comment="kpoint 41">
       <r>   -2.7599    1.0000 </r>
       <r>   -1.2908    1.0000 </r>
       <r>    1.5842    1.0000 </r>
       <r>    2.6220    1.0000 </r>
       <r>    9.1627    0.0000 </r>
       <r>    9.4021    0.0000 </r>
       <r>   11.2254    0.0000 </r>
       <r>   11.6302    0.0000 </r>
       <r>   13.9188    0.0000 </r>
       <r>   16.6753    0.0000 </r>
       <r>   17.5860    0.0000 </r>
       <r>   19.6547    0.0000 </r>
       <r>   20.9420    0.0000 </r>
       <r>   22.6095    0.0000 </r>
       <r>   22.7653    0.0000 </r>
       <r>   23.4817    0.0000 </r>
       <r>   23.8000    0.0000 </r>
       <r>   25.5391    0.0000 </r>
       <r>   26.1141    0.0000 </r>
       <r>   26.5796    0.0000 </r>
      </set>
      <set comment="kpoint 42">
       <r>   -2.9022    1.0000 </r>
       <r>   -1.2066    1.0000 </r>
       <r>    1.6348    1.0000 </r>
       <r>    2.7994    1.0000 </r>
       <r>    9.0484    0.0000 </r>
       <r>    9.2396    0.0000 </r>
       <r>   11.4894    0.0000 </r>
       <r>   11.8835    0.0000 </r>
       <r>   13.4181    0.0000 </r>
       <r>   16.6458    0.0000 </r>
       <r>   17.4863    0.0000 </r>
       <r>   19.2584    0.0000 </r>
       <r>   21.3918    0.0000 </r>
       <r>   22.3513    0.0000 </r>
       <r>   22.6527    0.0000 </r>
       <r>   23.3448    0.0000 </r>
       <r>   23.9038    0.0000 </r>
       <r>   25.7479    0.0000 </r>
       <r>   26.2114    0.0000 </r>
       <r>   26.9574    0.0000 </r>
      </set>
      <set comment="kpoint 43">
       <r>   -3.0370    1.0000 </r>
       <r>   -1.1464    1.0000 </r>
       <r>    1.7267    1.0000 </r>
       <r>    2.9790    1.0000 </r>
       <r>    8.9503    0.0000 </r>
       <r>    9.0824    0.0000 </r>
       <r>   11.7671    0.0000 </r>
       <r>   12.1422    0.0000 </r>
       <r>   12.9180    0.0000 </r>
       <r>   16.5773    0.0000 </r>
       <r>   17.3966    0.0000 </r>
       <r>   18.8548    0.0000 </r>
       <r>   21.6749    0.0000 </r>
       <r>   22.2836    0.0000 </r>
       <r>   22.3241    0.0000 </r>
       <r>   23.4092    0.0000 </r>
       <r>   24.0608    0.0000 </r>
       <r>   25.9270    0.0000 </r>
       <r>   26.2805    0.0000 </r>
       <r>   27.1324    0.0000 </r>
      </set>
      <set comment="kpoint 44">
       <r>   -3.1637    1.0000 </r>
       <r>   -1.1092    1.0000 </r>
       <r>    1.8589    1.0000 </r>
       <r>    3.1582    1.0000 </r>
       <r>    8.8695    0.0000 </r>
       <r>    8.9306    0.0000 </r>
       <r>   12.0546    0.0000 </r>
       <r>   12.4041    0.0000 </r>
       <r>   12.4267    0.0000 </r>
       <r>   16.4681    0.0000 </r>
       <r>   17.3146    0.0000 </r>
       <r>   18.4816    0.0000 </r>
       <r>   21.5170    0.0000 </r>
       <r>   21.9122    0.0000 </r>
       <r>   22.6434    0.0000 </r>
       <r>   23.5468    0.0000 </r>
       <r>   24.2725    0.0000 </r>
       <r>   26.0644    0.0000 </r>
       <r>   26.3245    0.0000 </r>
       <r>   27.2080    0.0000 </r>
      </set>
      <set comment="kpoint 45">
       <r>   -3.2816    1.0000 </r>
       <r>   -1.0923    1.0000 </r>
       <r>    2.0277    1.0000 </r>
       <r>    3.3345    1.0000 </r>
       <r>    8.7836    0.0000 </r>
       <r>    8.8067    0.0000 </r>
       <r>   11.9302    0.0000 </r>
       <r>   12.3700    0.0000 </r>
       <r>   12.6661    0.0000 </r>
       <r>   16.3160    0.0000 </r>
       <r>   17.2393    0.0000 </r>
       <r>   18.1574    0.0000 </r>
       <r>   21.2238    0.0000 </r>
       <r>   21.4706    0.0000 </r>
       <r>   23.1017    0.0000 </r>
       <r>   23.7067    0.0000 </r>
       <r>   24.5455    0.0000 </r>
       <r>   26.1540    0.0000 </r>
       <r>   26.3475    0.0000 </r>
       <r>   27.2803    0.0000 </r>
      </set>
      <set comment="kpoint 46">
       <r>   -3.3903    1.0000 </r>
       <r>   -1.0913    1.0000 </r>
       <r>    2.2286    1.0000 </r>
       <r>    3.5054    1.0000 </r>
       <r>    8.6400    0.0000 </r>
       <r>    8.7625    0.0000 </r>
       <r>   11.4632    0.0000 </r>
       <r>   12.6824    0.0000 </r>
       <r>   12.9237    0.0000 </r>
       <r>   16.1244    0.0000 </r>
       <r>   17.1699    0.0000 </r>
       <r>   17.8912    0.0000 </r>
       <r>   20.9035    0.0000 </r>
       <r>   21.0154    0.0000 </r>
       <r>   23.5311    0.0000 </r>
       <r>   23.8731    0.0000 </r>
       <r>   24.8865    0.0000 </r>
       <r>   26.2036    0.0000 </r>
       <r>   26.3550    0.0000 </r>
       <r>   27.3728    0.0000 </r>
      </set>
      <set comment="kpoint 47">
       <r>   -3.4895    1.0000 </r>
       <r>   -1.1021    1.0000 </r>
       <r>    2.4560    1.0000 </r>
       <r>    3.6681    1.0000 </r>
       <r>    8.4973    0.0000 </r>
       <r>    8.7371    0.0000 </r>
       <r>   11.0137    0.0000 </r>
       <r>   13.0089    0.0000 </r>
       <r>   13.1693    0.0000 </r>
       <r>   15.9072    0.0000 </r>
       <r>   17.1065    0.0000 </r>
       <r>   17.6821    0.0000 </r>
       <r>   20.5534    0.0000 </r>
       <r>   20.5740    0.0000 </r>
       <r>   23.9061    0.0000 </r>
       <r>   24.0381    0.0000 </r>
       <r>   25.2904    0.0000 </r>
       <r>   26.2311    0.0000 </r>
       <r>   26.3538    0.0000 </r>
       <r>   27.4748    0.0000 </r>
      </set>
      <set comment="kpoint 48">
       <r>   -3.5789    1.0000 </r>
       <r>   -1.1205    1.0000 </r>
       <r>    2.7043    1.0000 </r>
       <r>    3.8202    1.0000 </r>
       <r>    8.3519    0.0000 </r>
       <r>    8.7302    0.0000 </r>
       <r>   10.5904    0.0000 </r>
       <r>   13.3467    0.0000 </r>
       <r>   13.3901    0.0000 </r>
       <r>   15.6910    0.0000 </r>
       <r>   17.0490    0.0000 </r>
       <r>   17.5205    0.0000 </r>
       <r>   20.0889    0.0000 </r>
       <r>   20.2418    0.0000 </r>
       <r>   24.1951    0.0000 </r>
       <r>   24.2285    0.0000 </r>
       <r>   25.7332    0.0000 </r>
       <r>   26.2556    0.0000 </r>
       <r>   26.3516    0.0000 </r>
       <r>   27.5672    0.0000 </r>
      </set>
      <set comment="kpoint 49">
       <r>   -3.6582    1.0000 </r>
       <r>   -1.1431    1.0000 </r>
       <r>    2.9680    1.0000 </r>
       <r>    3.9592    1.0000 </r>
       <r>    8.1989    0.0000 </r>
       <r>    8.7405    0.0000 </r>
       <r>   10.2016    0.0000 </r>
       <r>   13.5647    0.0000 </r>
       <r>   13.6952    0.0000 </r>
       <r>   15.5131    0.0000 </r>
       <r>   16.9976    0.0000 </r>
       <r>   17.3939    0.0000 </r>
       <r>   19.6248    0.0000 </r>
       <r>   19.9115    0.0000 </r>
       <r>   24.3380    0.0000 </r>
       <r>   24.5085    0.0000 </r>
       <r>   26.1758    0.0000 </r>
       <r>   26.2915    0.0000 </r>
       <r>   26.3614    0.0000 </r>
       <r>   27.6335    0.0000 </r>
      </set>
      <set comment="kpoint 50">
       <r>   -3.7273    1.0000 </r>
       <r>   -1.1672    1.0000 </r>
       <r>    3.2411    1.0000 </r>
       <r>    4.0830    1.0000 </r>
       <r>    8.0327    0.0000 </r>
       <r>    8.7659    0.0000 </r>
       <r>    9.8569    0.0000 </r>
       <r>   13.6649    0.0000 </r>
       <r>   14.0537    0.0000 </r>
       <r>   15.4156    0.0000 </r>
       <r>   16.9524    0.0000 </r>
       <r>   17.2909    0.0000 </r>
       <r>   19.1633    0.0000 </r>
       <r>   19.5880    0.0000 </r>
       <r>   24.4615    0.0000 </r>
       <r>   24.7520    0.0000 </r>
       <r>   26.3482    0.0000 </r>
       <r>   26.3675    0.0000 </r>
       <r>   26.6059    0.0000 </r>
       <r>   27.6631    0.0000 </r>
      </set>
      <set comment="kpoint 51">
       <r>   -3.7860    1.0000 </r>
       <r>   -1.1905    1.0000 </r>
       <r>    3.5164    1.0000 </r>
       <r>    4.1898    1.0000 </r>
       <r>    7.8492    0.0000 </r>
       <r>    8.8030    0.0000 </r>
       <r>    9.5660    0.0000 </r>
       <r>   13.6727    0.0000 </r>
       <r>   14.4214    0.0000 </r>
       <r>   15.4270    0.0000 </r>
       <r>   16.9138    0.0000 </r>
       <r>   17.2022    0.0000 </r>
       <r>   18.7066    0.0000 </r>
       <r>   19.2779    0.0000 </r>
       <r>   24.5622    0.0000 </r>
       <r>   24.9578    0.0000 </r>
       <r>   26.4195    0.0000 </r>
       <r>   26.4304    0.0000 </r>
       <r>   26.9477    0.0000 </r>
       <r>   27.6523    0.0000 </r>
      </set>
      <set comment="kpoint 52">
       <r>   -3.8342    1.0000 </r>
       <r>   -1.2115    1.0000 </r>
       <r>    3.7847    1.0000 </r>
       <r>    4.2784    1.0000 </r>
       <r>    7.6498    0.0000 </r>
       <r>    8.8468    0.0000 </r>
       <r>    9.3355    0.0000 </r>
       <r>   13.6056    0.0000 </r>
       <r>   14.7971    0.0000 </r>
       <r>   15.5367    0.0000 </r>
       <r>   16.8819    0.0000 </r>
       <r>   17.1200    0.0000 </r>
       <r>   18.2569    0.0000 </r>
       <r>   18.9898    0.0000 </r>
       <r>   24.6392    0.0000 </r>
       <r>   25.1207    0.0000 </r>
       <r>   26.5053    0.0000 </r>
       <r>   26.5380    0.0000 </r>
       <r>   27.1909    0.0000 </r>
       <r>   27.6027    0.0000 </r>
      </set>
      <set comment="kpoint 53">
       <r>   -3.8717    1.0000 </r>
       <r>   -1.2289    1.0000 </r>
       <r>    4.0329    1.0000 </r>
       <r>    4.3478    1.0000 </r>
       <r>    7.4466    0.0000 </r>
       <r>    8.8913    0.0000 </r>
       <r>    9.1657    0.0000 </r>
       <r>   13.5050    0.0000 </r>
       <r>   15.1783    0.0000 </r>
       <r>   15.7056    0.0000 </r>
       <r>   16.8569    0.0000 </r>
       <r>   17.0378    0.0000 </r>
       <r>   17.8174    0.0000 </r>
       <r>   18.7363    0.0000 </r>
       <r>   24.6941    0.0000 </r>
       <r>   25.2376    0.0000 </r>
       <r>   26.6295    0.0000 </r>
       <r>   26.6671    0.0000 </r>
       <r>   27.3176    0.0000 </r>
       <r>   27.5195    0.0000 </r>
      </set>
      <set comment="kpoint 54">
       <r>   -3.8986    1.0000 </r>
       <r>   -1.2419    1.0000 </r>
       <r>    4.2418    1.0000 </r>
       <r>    4.3976    1.0000 </r>
       <r>    7.2630    0.0000 </r>
       <r>    8.9299    0.0000 </r>
       <r>    9.0516    0.0000 </r>
       <r>   13.4088    0.0000 </r>
       <r>   15.5588    0.0000 </r>
       <r>   15.8907    0.0000 </r>
       <r>   16.8388    0.0000 </r>
       <r>   16.9523    0.0000 </r>
       <r>   17.3952    0.0000 </r>
       <r>   18.5342    0.0000 </r>
       <r>   24.7300    0.0000 </r>
       <r>   25.3122    0.0000 </r>
       <r>   26.7839    0.0000 </r>
       <r>   26.8107    0.0000 </r>
       <r>   27.3344    0.0000 </r>
       <r>   27.4094    0.0000 </r>
      </set>
      <set comment="kpoint 55">
       <r>   -3.9148    1.0000 </r>
       <r>   -1.2499    1.0000 </r>
       <r>    4.3855    1.0000 </r>
       <r>    4.4275    1.0000 </r>
       <r>    7.1312    0.0000 </r>
       <r>    8.9562    0.0000 </r>
       <r>    8.9866    0.0000 </r>
       <r>   13.3421    0.0000 </r>
       <r>   15.9144    0.0000 </r>
       <r>   16.0461    0.0000 </r>
       <r>   16.8270    0.0000 </r>
       <r>   16.8728    0.0000 </r>
       <r>   17.0152    0.0000 </r>
       <r>   18.4024    0.0000 </r>
       <r>   24.7500    0.0000 </r>
       <r>   25.3522    0.0000 </r>
       <r>   26.9491    0.0000 </r>
       <r>   26.9587    0.0000 </r>
       <r>   27.2671    0.0000 </r>
       <r>   27.2822    0.0000 </r>
      </set>
      <set comment="kpoint 56">
       <r>   -3.9201    1.0000 </r>
       <r>   -1.2526    1.0000 </r>
       <r>    4.4375    1.0000 </r>
       <r>    4.4375    1.0000 </r>
       <r>    7.0826    0.0000 </r>
       <r>    8.9655    0.0000 </r>
       <r>    8.9655    0.0000 </r>
       <r>   13.3184    0.0000 </r>
       <r>   16.1111    0.0000 </r>
       <r>   16.1111    0.0000 </r>
       <r>   16.7975    0.0000 </r>
       <r>   16.8359    0.0000 </r>
       <r>   16.8359    0.0000 </r>
       <r>   18.3564    0.0000 </r>
       <r>   24.7564    0.0000 </r>
       <r>   25.3647    0.0000 </r>
       <r>   27.0640    0.0000 </r>
       <r>   27.0640    0.0000 </r>
       <r>   27.1838    0.0000 </r>
       <r>   27.1838    0.0000 </r>
      </set>
      <set comment="kpoint 57">
       <r>   -3.9543    1.0000 </r>
       <r>   -1.2032    1.0000 </r>
       <r>    4.4419    1.0000 </r>
       <r>    4.4419    1.0000 </r>
       <r>    7.0878    0.0000 </r>
       <r>    8.9704    0.0000 </r>
       <r>    8.9704    0.0000 </r>
       <r>   13.3259    0.0000 </r>
       <r>   15.8519    0.0000 </r>
       <r>   15.8519    0.0000 </r>
       <r>   16.6595    0.0000 </r>
       <r>   17.1139    0.0000 </r>
       <r>   17.1139    0.0000 </r>
       <r>   18.4880    0.0000 </r>
       <r>   24.2465    0.0000 </r>
       <r>   25.9009    0.0000 </r>
       <r>   26.4971    0.0000 </r>
       <r>   26.4971    0.0000 </r>
       <r>   27.7148    0.0000 </r>
       <r>   27.7148    0.0000 </r>
      </set>
      <set comment="kpoint 58">
       <r>   -4.0497    1.0000 </r>
       <r>   -1.0622    1.0000 </r>
       <r>    4.4552    1.0000 </r>
       <r>    4.4552    1.0000 </r>
       <r>    7.1033    0.0000 </r>
       <r>    8.9848    0.0000 </r>
       <r>    8.9848    0.0000 </r>
       <r>   13.3479    0.0000 </r>
       <r>   15.4187    0.0000 </r>
       <r>   15.4187    0.0000 </r>
       <r>   16.3368    0.0000 </r>
       <r>   17.6029    0.0000 </r>
       <r>   17.6029    0.0000 </r>
       <r>   18.7864    0.0000 </r>
       <r>   23.5578    0.0000 </r>
       <r>   25.8586    0.0000 </r>
       <r>   25.8586    0.0000 </r>
       <r>   26.6730    0.0000 </r>
       <r>   28.2395    0.0000 </r>
       <r>   28.2395    0.0000 </r>
      </set>
      <set comment="kpoint 59">
       <r>   -4.1900    1.0000 </r>
       <r>   -0.8460    1.0000 </r>
       <r>    4.4774    1.0000 </r>
       <r>    4.4774    1.0000 </r>
       <r>    7.1291    0.0000 </r>
       <r>    9.0076    0.0000 </r>
       <r>    9.0076    0.0000 </r>
       <r>   13.3816    0.0000 </r>
       <r>   14.9769    0.0000 </r>
       <r>   14.9769    0.0000 </r>
       <r>   15.9421    0.0000 </r>
       <r>   18.1369    0.0000 </r>
       <r>   18.1369    0.0000 </r>
       <r>   19.1201    0.0000 </r>
       <r>   22.9160    0.0000 </r>
       <r>   25.2182    0.0000 </r>
       <r>   25.2182    0.0000 </r>
       <r>   27.4736    0.0000 </r>
       <r>   28.6756    0.0000 </r>
       <r>   28.6756    0.0000 </r>
      </set>
      <set comment="kpoint 60">
       <r>   -4.3577    1.0000 </r>
       <r>   -0.5722    1.0000 </r>
       <r>    4.5084    1.0000 </r>
       <r>    4.5084    1.0000 </r>
       <r>    7.1649    0.0000 </r>
       <r>    9.0366    0.0000 </r>
       <r>    9.0366    0.0000 </r>
       <r>   13.4213    0.0000 </r>
       <r>   14.5526    0.0000 </r>
       <r>   14.5526    0.0000 </r>
       <r>   15.5290    0.0000 </r>
       <r>   18.6869    0.0000 </r>
       <r>   18.6869    0.0000 </r>
       <r>   19.3897    0.0000 </r>
       <r>   22.3884    0.0000 </r>
       <r>   24.5899    0.0000 </r>
       <r>   24.5899    0.0000 </r>
       <r>   28.2629    0.0000 </r>
       <r>   29.0030    0.0000 </r>
       <r>   29.0032    0.0000 </r>
      </set>
      <set comment="kpoint 61">
       <r>   -4.5394    1.0000 </r>
       <r>   -0.2546    1.0000 </r>
       <r>    4.5481    1.0000 </r>
       <r>    4.5481    1.0000 </r>
       <r>    7.2108    0.0000 </r>
       <r>    9.0692    0.0000 </r>
       <r>    9.0692    0.0000 </r>
       <r>   13.4539    0.0000 </r>
       <r>   14.1553    0.0000 </r>
       <r>   14.1553    0.0000 </r>
       <r>   15.1283    0.0000 </r>
       <r>   19.2371    0.0000 </r>
       <r>   19.2371    0.0000 </r>
       <r>   19.4789    0.0000 </r>
       <r>   22.0771    0.0000 </r>
       <r>   23.9888    0.0000 </r>
       <r>   23.9888    0.0000 </r>
       <r>   28.3784    0.0000 </r>
       <r>   29.2187    0.0000 </r>
       <r>   29.2215    0.0000 </r>
      </set>
      <set comment="kpoint 62">
       <r>   -4.7255    1.0000 </r>
       <r>    0.0968    1.0000 </r>
       <r>    4.5965    1.0000 </r>
       <r>    4.5965    1.0000 </r>
       <r>    7.2663    0.0000 </r>
       <r>    9.1010    0.0000 </r>
       <r>    9.1010    0.0000 </r>
       <r>   13.4499    0.0000 </r>
       <r>   13.7915    0.0000 </r>
       <r>   13.7915    0.0000 </r>
       <r>   14.7764    0.0000 </r>
       <r>   19.2962    0.0000 </r>
       <r>   19.7644    0.0000 </r>
       <r>   19.7644    0.0000 </r>
       <r>   22.0668    0.0000 </r>
       <r>   23.4395    0.0000 </r>
       <r>   23.4395    0.0000 </r>
       <r>   27.7504    0.0000 </r>
       <r>   29.3493    0.0000 </r>
       <r>   29.3493    0.0000 </r>
      </set>
      <set comment="kpoint 63">
       <r>   -4.9096    1.0000 </r>
       <r>    0.4753    1.0000 </r>
       <r>    4.6533    1.0000 </r>
       <r>    4.6533    1.0000 </r>
       <r>    7.3312    0.0000 </r>
       <r>    9.1271    0.0000 </r>
       <r>    9.1271    0.0000 </r>
       <r>   13.3529    0.0000 </r>
       <r>   13.4675    0.0000 </r>
       <r>   13.4675    0.0000 </r>
       <r>   14.5316    0.0000 </r>
       <r>   18.8932    0.0000 </r>
       <r>   20.2178    0.0000 </r>
       <r>   20.2178    0.0000 </r>
       <r>   22.3017    0.0000 </r>
       <r>   22.9943    0.0000 </r>
       <r>   22.9943    0.0000 </r>
       <r>   27.1086    0.0000 </r>
       <r>   29.4106    0.0000 </r>
       <r>   29.4106    0.0000 </r>
      </set>
      <set comment="kpoint 64">
       <r>   -5.0875    1.0000 </r>
       <r>    0.8760    1.0000 </r>
       <r>    4.7182    1.0000 </r>
       <r>    4.7182    1.0000 </r>
       <r>    7.4049    0.0000 </r>
       <r>    9.1410    0.0000 </r>
       <r>    9.1410    0.0000 </r>
       <r>   13.1164    0.0000 </r>
       <r>   13.1904    0.0000 </r>
       <r>   13.1904    0.0000 </r>
       <r>   14.4389    0.0000 </r>
       <r>   18.3856    0.0000 </r>
       <r>   20.4843    0.0000 </r>
       <r>   20.4843    0.0000 </r>
       <r>   22.6597    0.0000 </r>
       <r>   22.7671    0.0000 </r>
       <r>   22.7671    0.0000 </r>
       <r>   26.4939    0.0000 </r>
       <r>   29.4274    0.0000 </r>
       <r>   29.4274    0.0000 </r>
      </set>
      <set comment="kpoint 65">
       <r>   -5.2562    1.0000 </r>
       <r>    1.2951    1.0000 </r>
       <r>    4.7910    1.0000 </r>
       <r>    4.7910    1.0000 </r>
       <r>    7.4866    0.0000 </r>
       <r>    9.1361    0.0000 </r>
       <r>    9.1361    0.0000 </r>
       <r>   12.7700    0.0000 </r>
       <r>   12.9669    0.0000 </r>
       <r>   12.9669    0.0000 </r>
       <r>   14.4644    0.0000 </r>
       <r>   17.8495    0.0000 </r>
       <r>   20.4365    0.0000 </r>
       <r>   20.4365    0.0000 </r>
       <r>   22.8861    0.0000 </r>
       <r>   22.8861    0.0000 </r>
       <r>   23.0490    0.0000 </r>
       <r>   25.9340    0.0000 </r>
       <r>   29.4156    0.0000 </r>
       <r>   29.4156    0.0000 </r>
      </set>
      <set comment="kpoint 66">
       <r>   -5.4139    1.0000 </r>
       <r>    1.7297    1.0000 </r>
       <r>    4.8708    1.0000 </r>
       <r>    4.8708    1.0000 </r>
       <r>    7.5754    0.0000 </r>
       <r>    9.1062    0.0000 </r>
       <r>    9.1062    0.0000 </r>
       <r>   12.3671    0.0000 </r>
       <r>   12.8033    0.0000 </r>
       <r>   12.8033    0.0000 </r>
       <r>   14.5461    0.0000 </r>
       <r>   17.3281    0.0000 </r>
       <r>   20.1302    0.0000 </r>
       <r>   20.1302    0.0000 </r>
       <r>   23.2958    0.0000 </r>
       <r>   23.2958    0.0000 </r>
       <r>   23.3807    0.0000 </r>
       <r>   25.4880    0.0000 </r>
       <r>   29.3866    0.0000 </r>
       <r>   29.3866    0.0000 </r>
      </set>
      <set comment="kpoint 67">
       <r>   -5.5591    1.0000 </r>
       <r>    2.1769    1.0000 </r>
       <r>    4.9570    1.0000 </r>
       <r>    4.9570    1.0000 </r>
       <r>    7.6700    0.0000 </r>
       <r>    9.0476    0.0000 </r>
       <r>    9.0476    0.0000 </r>
       <r>   11.9375    0.0000 </r>
       <r>   12.7028    0.0000 </r>
       <r>   12.7028    0.0000 </r>
       <r>   14.6371    0.0000 </r>
       <r>   16.8555    0.0000 </r>
       <r>   19.7089    0.0000 </r>
       <r>   19.7089    0.0000 </r>
       <r>   23.5080    0.0000 </r>
       <r>   23.8528    0.0000 </r>
       <r>   23.8528    0.0000 </r>
       <r>   25.2890    0.0000 </r>
       <r>   29.3485    0.0000 </r>
[...]
       </set>
       <set comment="band 16">
        <r>  0.0342  0.0008  0.0002  0.0035  0.0000  0.0000  0.0000  0.0000  0.0000 </r>
        <r>  0.0342  0.0008  0.0002  0.0035  0.0000  0.0000  0.0000  0.0000  0.0000 </r>
       </set>
       <set comment="band 17">
        <r>  0.0030  0.0050  0.0168  0.0146  0.0000  0.0000  0.0000  0.0000  0.0000 </r>
        <r>  0.0030  0.0050  0.0168  0.0146  0.0000  0.0000  0.0000  0.0000  0.0000 </r>
       </set>
       <set comment="band 18">
        <r>  0.0213  0.0048  0.0107  0.0113  0.0000  0.0000  0.0000  0.0000  0.0000 </r>
        <r>  0.0213  0.0048  0.0107  0.0113  0.0000  0.0000  0.0000  0.0000  0.0000 </r>
       </set>
       <set comment="band 19">
        <r>  0.0223  0.0018  0.0132  0.0393  0.0000  0.0000  0.0000  0.0000  0.0000 </r>
        <r>  0.0223  0.0018  0.0132  0.0393  0.0000  0.0000  0.0000  0.0000  0.0000 </r>
       </set>
       <set comment="band 20">
        <r>  0.0052  0.0071  0.0245  0.0078  0.0000  0.0000  0.0000  0.0000  0.0000 </r>
        <r>  0.0052  0.0071  0.0244  0.0078  0.0000  0.0000  0.0000  0.0000  0.0000 </r>
       </set>
      </set>
      <set comment="kpoint 108">
       <set comment="band 1">
        <r>  0.1968  0.0381  0.0013  0.0001  0.0000  0.0000  0.0000  0.0000  0.0000 </r>
        <r>  0.1968  0.0381  0.0013  0.0001  0.0000  0.0000  0.0000  0.0000  0.0000 </r>
       </set>
       <set comment="band 2">
        <r>  0.1934  0.0456  0.0020  0.0000  0.0000  0.0000  0.0000  0.0000  0.0000 </r>
        <r>  0.1933  0.0456  0.0020  0.0000  0.0000  0.0000  0.0000  0.0000  0.0000 </r>
       </set>
       <set comment="band 3">
        <r>  0.0027  0.0072  0.0892  0.0845  0.0000  0.0000  0.0000  0.0000  0.0000 </r>
        <r>  0.0027  0.0072  0.0892  0.0845  0.0000  0.0000  0.0000  0.0000  0.0000 </r>
       </set>
       <set comment="band 4">
        <r>  0.0013  0.0077  0.0847  0.0905  0.0000  0.0000  0.0000  0.0000  0.0000 </r>
        <r>  0.0013  0.0077  0.0847  0.0905  0.0000  0.0000  0.0000  0.0000  0.0000 </r>
       </set>
       <set comment="band 5">
        <r>  0.0460  0.0332  0.0089  0.0122  0.0000  0.0000  0.0000  0.0000  0.0000 </r>
        <r>  0.0460  0.0332  0.0089  0.0122  0.0000  0.0000  0.0000  0.0000  0.0000 </r>
       </set>
       <set comment="band 6">
        <r>  0.0454  0.0297  0.0075  0.0116  0.0000  0.0000  0.0000  0.0000  0.0000 </r>
        <r>  0.0454  0.0297  0.0075  0.0116  0.0000  0.0000  0.0000  0.0000  0.0000 </r>
       </set>
       <set comment="band 7">
        <r>  0.0143  0.0192  0.0458  0.0792  0.0000  0.0000  0.0000  0.0000  0.0000 </r>
        <r>  0.0143  0.0192  0.0458  0.0792  0.0000  0.0000  0.0000  0.0000  0.0000 </r>
       </set>
       <set comment="band 8">
        <r>  0.0087  0.0107  0.0874  0.1005  0.0000  0.0000  0.0000  0.0000  0.0000 </r>
        <r>  0.0087  0.0107  0.0874  0.1005  0.0000  0.0000  0.0000  0.0000  0.0000 </r>
       </set>
       <set comment="band 9">
        <r>  0.0032  0.0239  0.0301  0.0023  0.0000  0.0000  0.0000  0.0000  0.0000 </r>
        <r>  0.0032  0.0239  0.0301  0.0023  0.0000  0.0000  0.0000  0.0000  0.0000 </r>
       </set>
       <set comment="band 10">
        <r>  0.0027  0.0189  0.0649  0.0252  0.0000  0.0000  0.0000  0.0000  0.0000 </r>
        <r>  0.0027  0.0189  0.0649  0.0252  0.0000  0.0000  0.0000  0.0000  0.0000 </r>
       </set>
       <set comment="band 11">
        <r>  0.0238  0.0596  0.0107  0.0011  0.0000  0.0000  0.0000  0.0000  0.0000 </r>
        <r>  0.0238  0.0596  0.0107  0.0011  0.0000  0.0000  0.0000  0.0000  0.0000 </r>
       </set>
       <set comment="band 12">
        <r>  0.0181  0.0890  0.0042  0.0000  0.0000  0.0000  0.0000  0.0000  0.0000 </r>
        <r>  0.0181  0.0890  0.0042  0.0000  0.0000  0.0000  0.0000  0.0000  0.0000 </r>
       </set>
       <set comment="band 13">
        <r>  0.0306  0.1001  0.0044  0.0193  0.0000  0.0000  0.0000  0.0000  0.0000 </r>
        <r>  0.0306  0.1001  0.0044  0.0193  0.0000  0.0000  0.0000  0.0000  0.0000 </r>
       </set>
       <set comment="band 14">
        <r>  0.0127  0.0937  0.0061  0.0190  0.0000  0.0000  0.0000  0.0000  0.0000 </r>
        <r>  0.0127  0.0937  0.0061  0.0190  0.0000  0.0000  0.0000  0.0000  0.0000 </r>
       </set>
       <set comment="band 15">
        <r>  0.0004  0.0024  0.0169  0.0002  0.0000  0.0000  0.0000  0.0000  0.0000 </r>
        <r>  0.0004  0.0024  0.0169  0.0002  0.0000  0.0000  0.0000  0.0000  0.0000 </r>
       </set>
       <set comment="band 16">
        <r>  0.0248  0.0007  0.0020  0.0032  0.0000  0.0000  0.0000  0.0000  0.0000 </r>
        <r>  0.0248  0.0007  0.0020  0.0032  0.0000  0.0000  0.0000  0.0000  0.0000 </r>
       </set>
       <set comment="band 17">
        <r>  0.0055  0.0042  0.0141  0.0218  0.0000  0.0000  0.0000  0.0000  0.0000 </r>
        <r>  0.0055  0.0042  0.0141  0.0218  0.0000  0.0000  0.0000  0.0000  0.0000 </r>
       </set>
       <set comment="band 18">
        <r>  0.0163  0.0023  0.0154  0.0133  0.0000  0.0000  0.0000  0.0000  0.0000 </r>
        <r>  0.0163  0.0023  0.0154  0.0133  0.0000  0.0000  0.0000  0.0000  0.0000 </r>
       </set>
       <set comment="band 19">
        <r>  0.0047  0.0058  0.0177  0.0119  0.0000  0.0000  0.0000  0.0000  0.0000 </r>
        <r>  0.0047  0.0058  0.0177  0.0119  0.0000  0.0000  0.0000  0.0000  0.0000 </r>
       </set>
       <set comment="band 20">
        <r>  0.0250  0.0026  0.0151  0.0257  0.0000  0.0000  0.0000  0.0000  0.0000 </r>
        <r>  0.0250  0.0026  0.0151  0.0257  0.0000  0.0000  0.0000  0.0000  0.0000 </r>
       </set>
      </set>
      <set comment="kpoint 109">
       <set comment="band 1">
        <r>  0.1953  0.0404  0.0006  0.0000  0.0000  0.0000  0.0000  0.0000  0.0000 </r>
        <r>  0.1953  0.0404  0.0006  0.0000  0.0000  0.0000  0.0000  0.0000  0.0000 </r>
       </set>
       <set comment="band 2">
        <r>  0.1929  0.0457  0.0008  0.0000  0.0000  0.0000  0.0000  0.0000  0.0000 </r>
        <r>  0.1929  0.0457  0.0008  0.0000  0.0000  0.0000  0.0000  0.0000  0.0000 </r>
       </set>
       <set comment="band 3">
        <r>  0.0014  0.0036  0.0937  0.0905  0.0000  0.0000  0.0000  0.0000  0.0000 </r>
        <r>  0.0014  0.0036  0.0937  0.0905  0.0000  0.0000  0.0000  0.0000  0.0000 </r>
       </set>
       <set comment="band 4">
        <r>  0.0009  0.0037  0.0907  0.0941  0.0000  0.0000  0.0000  0.0000  0.0000 </r>
        <r>  0.0009  0.0037  0.0907  0.0941  0.0000  0.0000  0.0000  0.0000  0.0000 </r>
       </set>
       <set comment="band 5">
        <r>  0.0488  0.0350  0.0045  0.0062  0.0000  0.0000  0.0000  0.0000  0.0000 </r>
        <r>  0.0488  0.0350  0.0045  0.0062  0.0000  0.0000  0.0000  0.0000  0.0000 </r>
       </set>
       <set comment="band 6">
        <r>  0.0481  0.0325  0.0040  0.0059  0.0000  0.0000  0.0000  0.0000  0.0000 </r>
        <r>  0.0481  0.0325  0.0040  0.0059  0.0000  0.0000  0.0000  0.0000  0.0000 </r>
       </set>
       <set comment="band 7">
        <r>  0.0083  0.0121  0.0621  0.0968  0.0000  0.0000  0.0000  0.0000  0.0000 </r>
        <r>  0.0083  0.0121  0.0621  0.0968  0.0000  0.0000  0.0000  0.0000  0.0000 </r>
       </set>
       <set comment="band 8">
        <r>  0.0040  0.0041  0.1092  0.1087  0.0000  0.0000  0.0000  0.0000  0.0000 </r>
        <r>  0.0040  0.0041  0.1092  0.1087  0.0000  0.0000  0.0000  0.0000  0.0000 </r>
       </set>
       <set comment="band 9">
        <r>  0.0043  0.0202  0.0115  0.0007  0.0000  0.0000  0.0000  0.0000  0.0000 </r>
        <r>  0.0043  0.0202  0.0115  0.0007  0.0000  0.0000  0.0000  0.0000  0.0000 </r>
       </set>
       <set comment="band 10">
        <r>  0.0023  0.0126  0.0565  0.0148  0.0000  0.0000  0.0000  0.0000  0.0000 </r>
        <r>  0.0023  0.0126  0.0565  0.0148  0.0000  0.0000  0.0000  0.0000  0.0000 </r>
       </set>
       <set comment="band 11">
        <r>  0.0178  0.0505  0.0045  0.0011  0.0000  0.0000  0.0000  0.0000  0.0000 </r>
        <r>  0.0178  0.0505  0.0045  0.0011  0.0000  0.0000  0.0000  0.0000  0.0000 </r>
       </set>
       <set comment="band 12">
        <r>  0.0163  0.0706  0.0027  0.0003  0.0000  0.0000  0.0000  0.0000  0.0000 </r>
        <r>  0.0163  0.0706  0.0027  0.0003  0.0000  0.0000  0.0000  0.0000  0.0000 </r>
       </set>
       <set comment="band 13">
        <r>  0.0385  0.1257  0.0022  0.0128  0.0000  0.0000  0.0000  0.0000  0.0000 </r>
        <r>  0.0385  0.1257  0.0022  0.0128  0.0000  0.0000  0.0000  0.0000  0.0000 </r>
       </set>
       <set comment="band 14">
        <r>  0.0229  0.1193  0.0035  0.0139  0.0000  0.0000  0.0000  0.0000  0.0000 </r>
        <r>  0.0229  0.1193  0.0035  0.0139  0.0000  0.0000  0.0000  0.0000  0.0000 </r>
       </set>
       <set comment="band 15">
        <r>  0.0012  0.0027  0.0133  0.0002  0.0000  0.0000  0.0000  0.0000  0.0000 </r>
        <r>  0.0012  0.0027  0.0133  0.0002  0.0000  0.0000  0.0000  0.0000  0.0000 </r>
       </set>
       <set comment="band 16">
        <r>  0.0152  0.0014  0.0047  0.0008  0.0000  0.0000  0.0000  0.0000  0.0000 </r>
        <r>  0.0152  0.0014  0.0047  0.0008  0.0000  0.0000  0.0000  0.0000  0.0000 </r>
       </set>
       <set comment="band 17">
        <r>  0.0073  0.0027  0.0097  0.0318  0.0000  0.0000  0.0000  0.0000  0.0000 </r>
        <r>  0.0073  0.0027  0.0097  0.0318  0.0000  0.0000  0.0000  0.0000  0.0000 </r>
       </set>
       <set comment="band 18">
        <r>  0.0104  0.0007  0.0225  0.0138  0.0000  0.0000  0.0000  0.0000  0.0000 </r>
        <r>  0.0104  0.0007  0.0225  0.0138  0.0000  0.0000  0.0000  0.0000  0.0000 </r>
       </set>
       <set comment="band 19">
        <r>  0.0034  0.0039  0.0124  0.0199  0.0000  0.0000  0.0000  0.0000  0.0000 </r>
        <r>  0.0034  0.0039  0.0124  0.0199  0.0000  0.0000  0.0000  0.0000  0.0000 </r>
       </set>
       <set comment="band 20">
        <r>  0.0177  0.0015  0.0230  0.0129  0.0000  0.0000  0.0000  0.0000  0.0000 </r>
        <r>  0.0177  0.0015  0.0230  0.0129  0.0000  0.0000  0.0000  0.0000  0.0000 </r>
       </set>
      </set>
      <set comment="kpoint 110">
       <set comment="band 1">
        <r>  0.1941  0.0423  0.0002  0.0000  0.0000  0.0000  0.0000  0.0000  0.0000 </r>
        <r>  0.1941  0.0423  0.0002  0.0000  0.0000  0.0000  0.0000  0.0000  0.0000 </r>
       </set>
       <set comment="band 2">
        <r>  0.1929  0.0451  0.0002  0.0000  0.0000  0.0000  0.0000  0.0000  0.0000 </r>
        <r>  0.1929  0.0451  0.0002  0.0000  0.0000  0.0000  0.0000  0.0000  0.0000 </r>
       </set>
       <set comment="band 3">
        <r>  0.0004  0.0010  0.0969  0.0952  0.0000  0.0000  0.0000  0.0000  0.0000 </r>
        <r>  0.0004  0.0010  0.0968  0.0952  0.0000  0.0000  0.0000  0.0000  0.0000 </r>
       </set>
       <set comment="band 4">
        <r>  0.0003  0.0010  0.0952  0.0969  0.0000  0.0000  0.0000  0.0000  0.0000 </r>
        <r>  0.0003  0.0010  0.0952  0.0969  0.0000  0.0000  0.0000  0.0000  0.0000 </r>
       </set>
       <set comment="band 5">
        <r>  0.0507  0.0362  0.0012  0.0017  0.0000  0.0000  0.0000  0.0000  0.0000 </r>
        <r>  0.0507  0.0362  0.0012  0.0017  0.0000  0.0000  0.0000  0.0000  0.0000 </r>
       </set>
       <set comment="band 6">
        <r>  0.0501  0.0349  0.0012  0.0016  0.0000  0.0000  0.0000  0.0000  0.0000 </r>
        <r>  0.0501  0.0349  0.0012  0.0016  0.0000  0.0000  0.0000  0.0000  0.0000 </r>
       </set>
       <set comment="band 7">
        <r>  0.0022  0.0032  0.0952  0.1191  0.0000  0.0000  0.0000  0.0000  0.0000 </r>
        <r>  0.0022  0.0032  0.0952  0.1191  0.0000  0.0000  0.0000  0.0000  0.0000 </r>
       </set>
       <set comment="band 8">
        <r>  0.0011  0.0011  0.1201  0.1123  0.0000  0.0000  0.0000  0.0000  0.0000 </r>
        <r>  0.0011  0.0011  0.1201  0.1123  0.0000  0.0000  0.0000  0.0000  0.0000 </r>
       </set>
       <set comment="band 9">
        <r>  0.0024  0.0090  0.0039  0.0065  0.0000  0.0000  0.0000  0.0000  0.0000 </r>
        <r>  0.0024  0.0091  0.0039  0.0065  0.0000  0.0000  0.0000  0.0000  0.0000 </r>
       </set>
       <set comment="band 10">
        <r>  0.0017  0.0069  0.0280  0.0009  0.0000  0.0000  0.0000  0.0000  0.0000 </r>
        <r>  0.0017  0.0069  0.0280  0.0009  0.0000  0.0000  0.0000  0.0000  0.0000 </r>
       </set>
       <set comment="band 11">
        <r>  0.0050  0.0156  0.0015  0.0014  0.0000  0.0000  0.0000  0.0000  0.0000 </r>
        <r>  0.0050  0.0156  0.0015  0.0014  0.0000  0.0000  0.0000  0.0000  0.0000 </r>
       </set>
       <set comment="band 12">
        <r>  0.0056  0.0213  0.0014  0.0012  0.0000  0.0000  0.0000  0.0000  0.0000 </r>
        <r>  0.0056  0.0213  0.0014  0.0012  0.0000  0.0000  0.0000  0.0000  0.0000 </r>
       </set>
       <set comment="band 13">
        <r>  0.0531  0.1785  0.0004  0.0043  0.0000  0.0000  0.0000  0.0000  0.0000 </r>
        <r>  0.0531  0.1785  0.0004  0.0043  0.0000  0.0000  0.0000  0.0000  0.0000 </r>
       </set>
       <set comment="band 14">
        <r>  0.0433  0.1794  0.0007  0.0048  0.0000  0.0000  0.0000  0.0000  0.0000 </r>
        <r>  0.0433  0.1794  0.0007  0.0048  0.0000  0.0000  0.0000  0.0000  0.0000 </r>
       </set>
       <set comment="band 15">
        <r>  0.0033  0.0028  0.0063  0.0001  0.0000  0.0000  0.0000  0.0000  0.0000 </r>
        <r>  0.0033  0.0028  0.0063  0.0001  0.0000  0.0000  0.0000  0.0000  0.0000 </r>
       </set>
       <set comment="band 16">
        <r>  0.0102  0.0020  0.0036  0.0000  0.0000  0.0000  0.0000  0.0000  0.0000 </r>
        <r>  0.0102  0.0020  0.0036  0.0000  0.0000  0.0000  0.0000  0.0000  0.0000 </r>
       </set>
       <set comment="band 17">
        <r>  0.0041  0.0009  0.0090  0.0386  0.0000  0.0000  0.0000  0.0000  0.0000 </r>
        <r>  0.0041  0.0009  0.0090  0.0386  0.0000  0.0000  0.0000  0.0000  0.0000 </r>
       </set>
       <set comment="band 18">
        <r>  0.0043  0.0001  0.0313  0.0144  0.0000  0.0000  0.0000  0.0000  0.0000 </r>
        <r>  0.0043  0.0001  0.0313  0.0144  0.0000  0.0000  0.0000  0.0000  0.0000 </r>
       </set>
       <set comment="band 19">
        <r>  0.0009  0.0012  0.0097  0.0282  0.0000  0.0000  0.0000  0.0000  0.0000 </r>
        <r>  0.0009  0.0012  0.0097  0.0282  0.0000  0.0000  0.0000  0.0000  0.0000 </r>
       </set>
       <set comment="band 20">
        <r>  0.0031  0.0000  0.0328  0.0062  0.0000  0.0000  0.0000  0.0000  0.0000 </r>
        <r>  0.0031  0.0000  0.0328  0.0062  0.0000  0.0000  0.0000  0.0000  0.0000 </r>
       </set>
      </set>
      <set comment="kpoint 111">
       <set comment="band 1">
        <r>  0.0141  0.0847  0.0000  0.0000  0.0000  0.0000  0.0000  0.0000  0.0000 </r>
        <r>  0.3724  0.0032  0.0000  0.0000  0.0000  0.0000  0.0000  0.0000  0.0000 </r>
       </set>
       <set comment="band 2">
        <r>  0.3724  0.0032  0.0000  0.0000  0.0000  0.0000  0.0000  0.0000  0.0000 </r>
        <r>  0.0141  0.0847  0.0000  0.0000  0.0000  0.0000  0.0000  0.0000  0.0000 </r>
       </set>
       <set comment="band 3">
        <r>  0.0000  0.0000  0.0975  0.0975  0.0000  0.0000  0.0000  0.0000  0.0000 </r>
        <r>  0.0000  0.0000  0.0975  0.0975  0.0000  0.0000  0.0000  0.0000  0.0000 </r>
       </set>
       <set comment="band 4">
        <r>  0.0000  0.0000  0.0975  0.0975  0.0000  0.0000  0.0000  0.0000  0.0000 </r>
        <r>  0.0000  0.0000  0.0975  0.0975  0.0000  0.0000  0.0000  0.0000  0.0000 </r>
       </set>
       <set comment="band 5">
        <r>  0.0063  0.0679  0.0000  0.0000  0.0000  0.0000  0.0000  0.0000  0.0000 </r>
        <r>  0.0960  0.0045  0.0000  0.0000  0.0000  0.0000  0.0000  0.0000  0.0000 </r>
       </set>
       <set comment="band 6">
        <r>  0.0960  0.0045  0.0000  0.0000  0.0000  0.0000  0.0000  0.0000  0.0000 </r>
        <r>  0.0063  0.0679  0.0000  0.0000  0.0000  0.0000  0.0000  0.0000  0.0000 </r>
       </set>
       <set comment="band 7">
        <r>  0.0000  0.0000  0.1200  0.1200  0.0000  0.0000  0.0000  0.0000  0.0000 </r>
        <r>  0.0000  0.0000  0.1200  0.1200  0.0000  0.0000  0.0000  0.0000  0.0000 </r>
       </set>
       <set comment="band 8">
        <r>  0.0000  0.0000  0.1200  0.1200  0.0000  0.0000  0.0000  0.0000  0.0000 </r>
        <r>  0.0000  0.0000  0.1200  0.1200  0.0000  0.0000  0.0000  0.0000  0.0000 </r>
       </set>
       <set comment="band 9">
        <r>  0.0000  0.0000  0.0055  0.0055  0.0000  0.0000  0.0000  0.0000  0.0000 </r>
        <r>  0.0000  0.0000  0.0055  0.0055  0.0000  0.0000  0.0000  0.0000  0.0000 </r>
       </set>
       <set comment="band 10">
        <r>  0.0000  0.0000  0.0055  0.0055  0.0000  0.0000  0.0000  0.0000  0.0000 </r>
        <r>  0.0000  0.0000  0.0055  0.0055  0.0000  0.0000  0.0000  0.0000  0.0000 </r>
       </set>
       <set comment="band 11">
        <r>  0.0000  0.0000  0.0000  0.0000  0.0000  0.0000  0.0000  0.0000  0.0000 </r>
        <r>  0.0000  0.0000  0.0000  0.0000  0.0000  0.0000  0.0000  0.0000  0.0000 </r>
       </set>
       <set comment="band 12">
        <r>  0.0000  0.0000  0.0000  0.0000  0.0000  0.0000  0.0000  0.0000  0.0000 </r>
        <r>  0.0000  0.0000  0.0000  0.0000  0.0000  0.0000  0.0000  0.0000  0.0000 </r>
       </set>
       <set comment="band 13">
        <r>  0.0984  0.0582  0.0000  0.0000  0.0000  0.0000  0.0000  0.0000  0.0000 </r>
        <r>  0.0161  0.3566  0.0000  0.0000  0.0000  0.0000  0.0000  0.0000  0.0000 </r>
       </set>
       <set comment="band 14">
        <r>  0.0161  0.3566  0.0000  0.0000  0.0000  0.0000  0.0000  0.0000  0.0000 </r>
        <r>  0.0984  0.0582  0.0000  0.0000  0.0000  0.0000  0.0000  0.0000  0.0000 </r>
       </set>
       <set comment="band 15">
        <r>  0.0111  0.0013  0.0000  0.0000  0.0000  0.0000  0.0000  0.0000  0.0000 </r>
        <r>  0.0038  0.0038  0.0000  0.0000  0.0000  0.0000  0.0000  0.0000  0.0000 </r>
       </set>
       <set comment="band 16">
        <r>  0.0038  0.0038  0.0000  0.0000  0.0000  0.0000  0.0000  0.0000  0.0000 </r>
        <r>  0.0111  0.0013  0.0000  0.0000  0.0000  0.0000  0.0000  0.0000  0.0000 </r>
       </set>
       <set comment="band 17">
        <r>  0.0000  0.0000  0.0269  0.0269  0.0000  0.0000  0.0000  0.0000  0.0000 </r>
        <r>  0.0000  0.0000  0.0269  0.0269  0.0000  0.0000  0.0000  0.0000  0.0000 </r>
       </set>
       <set comment="band 18">
        <r>  0.0000  0.0000  0.0269  0.0269  0.0000  0.0000  0.0000  0.0000  0.0000 </r>
        <r>  0.0000  0.0000  0.0269  0.0269  0.0000  0.0000  0.0000  0.0000  0.0000 </r>
       </set>
       <set comment="band 19">
        <r>  0.0000  0.0000  0.0201  0.0201  0.0000  0.0000  0.0000  0.0000  0.0000 </r>
        <r>  0.0000  0.0000  0.0201  0.0201  0.0000  0.0000  0.0000  0.0000  0.0000 </r>
       </set>
       <set comment="band 20">
        <r>  0.0000  0.0000  0.0201  0.0201  0.0000  0.0000  0.0000  0.0000  0.0000 </r>
        <r>  0.0000  0.0000  0.0201  0.0201  0.0000  0.0000  0.0000  0.0000  0.0000 </r>
       </set>
      </set>
     </set>
    </set>
   </array>
  </projected>
 </calculation>
 <structure name="finalpos" >
  <crystal>
   <varray name="basis" >
    <v>       0.00000000       2.73436000       2.73436000 </v>
    <v>       2.73436000       0.00000000       2.73436000 </v>
    <v>       2.73436000       2.73436000       0.00000000 </v>
   </varray>
   <i name="volume">     40.88811341 </i>
   <varray name="rec_basis" >
    <v>      -0.18285815       0.18285815       0.18285815 </v>
    <v>       0.18285815      -0.18285815       0.18285815 </v>
    <v>       0.18285815       0.18285815      -0.18285815 </v>
   </varray>
  </crystal>
  <varray name="positions" >
   <v>       0.00000000       0.00000000       0.00000000 </v>
   <v>       0.25000000       0.25000000       0.25000000 </v>
  </varray>
 </structure>
</modeling>
